/*--------------------------------*- C++ -*----------------------------------*\
| =========                 |                                                 |
| \\      /  F ield         | foam-extend: Open Source CFD                    |
|  \\    /   O peration     | Version:     4.0                                |
|   \\  /    A nd           | Web:         http://www.foam-extend.org         |
|    \\/     M anipulation  |                                                 |
\*---------------------------------------------------------------------------*/
FoamFile
{
    version     2.0;
    format      ascii;
    class       volVectorField;
    location    "1";
    object      DD;
}
// * * * * * * * * * * * * * * * * * * * * * * * * * * * * * * * * * * * * * //

dimensions      [0 1 0 0 0 0 0];

internalField   nonuniform List<vector> 
4500
(
(-1.71865e-06 -1.44632e-06 0)
(-5.02905e-06 -3.18785e-06 0)
(-8.27856e-06 -4.70482e-06 0)
(-1.15269e-05 -6.41255e-06 0)
(-1.47868e-05 -8.46341e-06 0)
(-1.80587e-05 -1.09254e-05 0)
(-2.13382e-05 -1.38303e-05 0)
(-2.46208e-05 -1.71935e-05 0)
(-2.7902e-05 -2.10218e-05 0)
(-3.11787e-05 -2.53181e-05 0)
(-3.44486e-05 -3.00826e-05 0)
(-3.77101e-05 -3.53147e-05 0)
(-4.0962e-05 -4.10129e-05 0)
(-4.42037e-05 -4.71758e-05 0)
(-4.74347e-05 -5.38016e-05 0)
(-5.06547e-05 -6.08886e-05 0)
(-5.38637e-05 -6.84352e-05 0)
(-5.70615e-05 -7.64395e-05 0)
(-6.0248e-05 -8.48999e-05 0)
(-6.34232e-05 -9.38149e-05 0)
(-6.65872e-05 -0.000103183 0)
(-6.97399e-05 -0.000113002 0)
(-7.28812e-05 -0.00012327 0)
(-7.60113e-05 -0.000133987 0)
(-7.91301e-05 -0.00014515 0)
(-8.22375e-05 -0.000156757 0)
(-8.53337e-05 -0.000168808 0)
(-8.84185e-05 -0.000181301 0)
(-9.14921e-05 -0.000194233 0)
(-9.45544e-05 -0.000207603 0)
(-9.76053e-05 -0.00022141 0)
(-0.000100645 -0.000235652 0)
(-0.000103673 -0.000250328 0)
(-0.00010669 -0.000265435 0)
(-0.000109696 -0.000280973 0)
(-0.000112691 -0.000296939 0)
(-0.000115674 -0.000313332 0)
(-0.000118646 -0.000330151 0)
(-0.000121606 -0.000347393 0)
(-0.000124556 -0.000365057 0)
(-0.000127493 -0.000383142 0)
(-0.00013042 -0.000401646 0)
(-0.000133336 -0.000420567 0)
(-0.00013624 -0.000439904 0)
(-0.000139132 -0.000459655 0)
(-0.000142014 -0.000479818 0)
(-0.000144884 -0.000500392 0)
(-0.000147743 -0.000521375 0)
(-0.00015059 -0.000542766 0)
(-0.000153427 -0.000564563 0)
(-0.000156252 -0.000586765 0)
(-0.000159065 -0.000609369 0)
(-0.000161868 -0.000632374 0)
(-0.000164659 -0.000655779 0)
(-0.000167439 -0.000679581 0)
(-0.000170207 -0.00070378 0)
(-0.000172964 -0.000728374 0)
(-0.00017571 -0.000753361 0)
(-0.000178445 -0.000778739 0)
(-0.000181168 -0.000804507 0)
(-0.00018388 -0.000830663 0)
(-0.000186581 -0.000857206 0)
(-0.00018927 -0.000884134 0)
(-0.000191948 -0.000911445 0)
(-0.000194615 -0.000939138 0)
(-0.00019727 -0.000967211 0)
(-0.000199915 -0.000995663 0)
(-0.000202547 -0.00102449 0)
(-0.000205169 -0.0010537 0)
(-0.000207779 -0.00108327 0)
(-0.000210378 -0.00111322 0)
(-0.000212966 -0.00114354 0)
(-0.000215542 -0.00117423 0)
(-0.000218108 -0.00120529 0)
(-0.000220661 -0.00123671 0)
(-0.000223204 -0.0012685 0)
(-0.000225735 -0.00130065 0)
(-0.000228255 -0.00133315 0)
(-0.000230763 -0.00136602 0)
(-0.000233261 -0.00139925 0)
(-0.000235747 -0.00143283 0)
(-0.000238221 -0.00146677 0)
(-0.000240685 -0.00150106 0)
(-0.000243137 -0.0015357 0)
(-0.000245578 -0.00157069 0)
(-0.000248007 -0.00160602 0)
(-0.000250425 -0.00164171 0)
(-0.000252832 -0.00167774 0)
(-0.000255228 -0.00171411 0)
(-0.000257612 -0.00175082 0)
(-0.000259985 -0.00178787 0)
(-0.000262347 -0.00182526 0)
(-0.000264697 -0.00186299 0)
(-0.000267036 -0.00190105 0)
(-0.000269364 -0.00193945 0)
(-0.000271681 -0.00197818 0)
(-0.000273986 -0.00201723 0)
(-0.00027628 -0.00205662 0)
(-0.000278562 -0.00209633 0)
(-0.000280834 -0.00213637 0)
(-0.000283094 -0.00217673 0)
(-0.000285343 -0.00221742 0)
(-0.00028758 -0.00225842 0)
(-0.000289806 -0.00229975 0)
(-0.000292021 -0.00234139 0)
(-0.000294224 -0.00238334 0)
(-0.000296417 -0.00242561 0)
(-0.000298597 -0.00246819 0)
(-0.000300767 -0.00251109 0)
(-0.000302925 -0.00255429 0)
(-0.000305072 -0.0025978 0)
(-0.000307208 -0.00264162 0)
(-0.000309333 -0.00268574 0)
(-0.000311446 -0.00273016 0)
(-0.000313547 -0.00277488 0)
(-0.000315638 -0.0028199 0)
(-0.000317717 -0.00286523 0)
(-0.000319785 -0.00291084 0)
(-0.000321842 -0.00295676 0)
(-0.000323887 -0.00300296 0)
(-0.000325921 -0.00304946 0)
(-0.000327944 -0.00309624 0)
(-0.000329955 -0.00314332 0)
(-0.000331955 -0.00319068 0)
(-0.000333944 -0.00323832 0)
(-0.000335922 -0.00328625 0)
(-0.000337888 -0.00333446 0)
(-0.000339843 -0.00338295 0)
(-0.000341787 -0.00343172 0)
(-0.000343719 -0.00348077 0)
(-0.00034564 -0.00353009 0)
(-0.00034755 -0.00357968 0)
(-0.000349448 -0.00362955 0)
(-0.000351335 -0.00367969 0)
(-0.000353211 -0.0037301 0)
(-0.000355076 -0.00378077 0)
(-0.000356929 -0.00383171 0)
(-0.000358771 -0.00388291 0)
(-0.000360601 -0.00393438 0)
(-0.000362421 -0.0039861 0)
(-0.000364229 -0.00403809 0)
(-0.000366025 -0.00409033 0)
(-0.000367811 -0.00414283 0)
(-0.000369585 -0.00419558 0)
(-0.000371348 -0.00424858 0)
(-0.000373099 -0.00430184 0)
(-0.00037484 -0.00435535 0)
(-0.000376569 -0.0044091 0)
(-0.000378286 -0.0044631 0)
(-0.000379993 -0.00451734 0)
(-0.000381688 -0.00457183 0)
(-0.000383371 -0.00462656 0)
(-0.000385044 -0.00468153 0)
(-0.000386705 -0.00473673 0)
(-0.000388355 -0.00479218 0)
(-0.000389993 -0.00484785 0)
(-0.000391621 -0.00490377 0)
(-0.000393236 -0.00495991 0)
(-0.000394841 -0.00501628 0)
(-0.000396434 -0.00507288 0)
(-0.000398017 -0.00512971 0)
(-0.000399587 -0.00518676 0)
(-0.000401147 -0.00524404 0)
(-0.000402695 -0.00530154 0)
(-0.000404232 -0.00535926 0)
(-0.000405757 -0.00541719 0)
(-0.000407272 -0.00547535 0)
(-0.000408774 -0.00553372 0)
(-0.000410266 -0.0055923 0)
(-0.000411746 -0.0056511 0)
(-0.000413216 -0.00571011 0)
(-0.000414673 -0.00576932 0)
(-0.00041612 -0.00582875 0)
(-0.000417555 -0.00588838 0)
(-0.000418979 -0.00594821 0)
(-0.000420391 -0.00600825 0)
(-0.000421793 -0.00606849 0)
(-0.000423183 -0.00612892 0)
(-0.000424561 -0.00618956 0)
(-0.000425929 -0.00625039 0)
(-0.000427285 -0.00631141 0)
(-0.000428629 -0.00637263 0)
(-0.000429963 -0.00643404 0)
(-0.000431285 -0.00649564 0)
(-0.000432596 -0.00655743 0)
(-0.000433895 -0.0066194 0)
(-0.000435184 -0.00668156 0)
(-0.000436461 -0.0067439 0)
(-0.000437726 -0.00680642 0)
(-0.000438981 -0.00686913 0)
(-0.000440224 -0.00693201 0)
(-0.000441456 -0.00699507 0)
(-0.000442676 -0.0070583 0)
(-0.000443885 -0.00712171 0)
(-0.000445083 -0.00718529 0)
(-0.00044627 -0.00724904 0)
(-0.000447445 -0.00731295 0)
(-0.000448609 -0.00737704 0)
(-0.000449762 -0.00744129 0)
(-0.000450903 -0.00750571 0)
(-0.000452033 -0.00757028 0)
(-0.000453152 -0.00763502 0)
(-0.000454259 -0.00769992 0)
(-0.000455355 -0.00776497 0)
(-0.00045644 -0.00783018 0)
(-0.000457514 -0.00789554 0)
(-0.000458576 -0.00796106 0)
(-0.000459627 -0.00802673 0)
(-0.000460667 -0.00809254 0)
(-0.000461695 -0.00815851 0)
(-0.000462712 -0.00822462 0)
(-0.000463718 -0.00829087 0)
(-0.000464713 -0.00835727 0)
(-0.000465696 -0.00842381 0)
(-0.000466668 -0.00849049 0)
(-0.000467628 -0.00855731 0)
(-0.000468577 -0.00862426 0)
(-0.000469515 -0.00869135 0)
(-0.000470442 -0.00875857 0)
(-0.000471358 -0.00882592 0)
(-0.000472262 -0.0088934 0)
(-0.000473154 -0.00896102 0)
(-0.000474036 -0.00902875 0)
(-0.000474906 -0.00909662 0)
(-0.000475765 -0.0091646 0)
(-0.000476613 -0.00923271 0)
(-0.000477449 -0.00930094 0)
(-0.000478274 -0.00936929 0)
(-0.000479088 -0.00943775 0)
(-0.00047989 -0.00950633 0)
(-0.000480681 -0.00957502 0)
(-0.000481461 -0.00964383 0)
(-0.000482229 -0.00971275 0)
(-0.000482987 -0.00978177 0)
(-0.000483732 -0.00985091 0)
(-0.000484467 -0.00992014 0)
(-0.00048519 -0.00998949 0)
(-0.000485902 -0.0100589 0)
(-0.000486603 -0.0101285 0)
(-0.000487292 -0.0101981 0)
(-0.000487971 -0.0102679 0)
(-0.000488637 -0.0103377 0)
(-0.000489293 -0.0104076 0)
(-0.000489937 -0.0104777 0)
(-0.00049057 -0.0105478 0)
(-0.000491192 -0.010618 0)
(-0.000491802 -0.0106883 0)
(-0.000492401 -0.0107587 0)
(-0.000492989 -0.0108291 0)
(-0.000493565 -0.0108997 0)
(-0.00049413 -0.0109703 0)
(-0.000494684 -0.011041 0)
(-0.000495226 -0.0111118 0)
(-0.000495758 -0.0111827 0)
(-0.000496278 -0.0112536 0)
(-0.000496786 -0.0113246 0)
(-0.000497283 -0.0113957 0)
(-0.000497769 -0.0114669 0)
(-0.000498244 -0.0115381 0)
(-0.000498708 -0.0116094 0)
(-0.00049916 -0.0116808 0)
(-0.000499601 -0.0117522 0)
(-0.00050003 -0.0118237 0)
(-0.000500448 -0.0118952 0)
(-0.000500855 -0.0119668 0)
(-0.000501251 -0.0120385 0)
(-0.000501635 -0.0121102 0)
(-0.000502008 -0.012182 0)
(-0.00050237 -0.0122538 0)
(-0.00050272 -0.0123256 0)
(-0.000503059 -0.0123976 0)
(-0.000503387 -0.0124695 0)
(-0.000503704 -0.0125416 0)
(-0.000504009 -0.0126136 0)
(-0.000504303 -0.0126857 0)
(-0.000504586 -0.0127579 0)
(-0.000504857 -0.0128301 0)
(-0.000505117 -0.0129023 0)
(-0.000505366 -0.0129745 0)
(-0.000505603 -0.0130468 0)
(-0.000505829 -0.0131192 0)
(-0.000506044 -0.0131915 0)
(-0.000506247 -0.0132639 0)
(-0.00050644 -0.0133363 0)
(-0.000506621 -0.0134088 0)
(-0.00050679 -0.0134812 0)
(-0.000506949 -0.0135537 0)
(-0.000507096 -0.0136262 0)
(-0.000507232 -0.0136988 0)
(-0.000507356 -0.0137713 0)
(-0.00050747 -0.0138439 0)
(-0.000507573 -0.0139165 0)
(-0.000507664 -0.0139891 0)
(-0.000507746 -0.0140617 0)
(-0.000507817 -0.0141343 0)
(-0.000507879 -0.0142069 0)
(-0.000507931 -0.0142796 0)
(-0.000507976 -0.0143522 0)
(-0.000508013 -0.0144249 0)
(-0.000508041 -0.0144976 0)
(-1.13271e-06 -5.87594e-07 0)
(-3.90175e-06 -1.96347e-06 0)
(-6.77127e-06 -3.41107e-06 0)
(-9.64398e-06 -5.10257e-06 0)
(-1.2505e-05 -7.1495e-06 0)
(-1.53548e-05 -9.61098e-06 0)
(-1.81951e-05 -1.2517e-05 0)
(-2.10269e-05 -1.58824e-05 0)
(-2.38505e-05 -1.97136e-05 0)
(-2.66656e-05 -2.40134e-05 0)
(-2.94722e-05 -2.87817e-05 0)
(-3.22698e-05 -3.40179e-05 0)
(-3.50583e-05 -3.97204e-05 0)
(-3.78375e-05 -4.58876e-05 0)
(-4.06072e-05 -5.25179e-05 0)
(-4.33674e-05 -5.96093e-05 0)
(-4.6118e-05 -6.71603e-05 0)
(-4.88589e-05 -7.51691e-05 0)
(-5.15902e-05 -8.36341e-05 0)
(-5.43119e-05 -9.25535e-05 0)
(-5.70238e-05 -0.000101926 0)
(-5.97261e-05 -0.000111749 0)
(-6.24187e-05 -0.000122022 0)
(-6.51016e-05 -0.000132744 0)
(-6.77748e-05 -0.000143911 0)
(-7.04383e-05 -0.000155523 0)
(-7.30922e-05 -0.000167578 0)
(-7.57364e-05 -0.000180075 0)
(-7.83708e-05 -0.000193012 0)
(-8.09956e-05 -0.000206387 0)
(-8.36107e-05 -0.000220198 0)
(-8.62162e-05 -0.000234445 0)
(-8.88119e-05 -0.000249125 0)
(-9.1398e-05 -0.000264237 0)
(-9.39743e-05 -0.000279779 0)
(-9.6541e-05 -0.00029575 0)
(-9.9098e-05 -0.000312147 0)
(-0.000101645 -0.00032897 0)
(-0.000104183 -0.000346217 0)
(-0.000106711 -0.000363886 0)
(-0.000109229 -0.000381975 0)
(-0.000111738 -0.000400484 0)
(-0.000114237 -0.000419409 0)
(-0.000116726 -0.00043875 0)
(-0.000119205 -0.000458506 0)
(-0.000121675 -0.000478674 0)
(-0.000124135 -0.000499252 0)
(-0.000126586 -0.00052024 0)
(-0.000129027 -0.000541635 0)
(-0.000131458 -0.000563437 0)
(-0.000133879 -0.000585643 0)
(-0.000136291 -0.000608251 0)
(-0.000138693 -0.000631261 0)
(-0.000141085 -0.00065467 0)
(-0.000143468 -0.000678477 0)
(-0.000145841 -0.000702681 0)
(-0.000148204 -0.000727279 0)
(-0.000150558 -0.00075227 0)
(-0.000152902 -0.000777653 0)
(-0.000155236 -0.000803425 0)
(-0.00015756 -0.000829586 0)
(-0.000159875 -0.000856133 0)
(-0.000162181 -0.000883066 0)
(-0.000164476 -0.000910381 0)
(-0.000166762 -0.000938079 0)
(-0.000169038 -0.000966157 0)
(-0.000171304 -0.000994613 0)
(-0.000173561 -0.00102345 0)
(-0.000175808 -0.00105265 0)
(-0.000178046 -0.00108224 0)
(-0.000180273 -0.00111219 0)
(-0.000182491 -0.00114252 0)
(-0.0001847 -0.00117321 0)
(-0.000186898 -0.00120427 0)
(-0.000189087 -0.0012357 0)
(-0.000191267 -0.00126749 0)
(-0.000193436 -0.00129964 0)
(-0.000195596 -0.00133215 0)
(-0.000197746 -0.00136503 0)
(-0.000199887 -0.00139826 0)
(-0.000202018 -0.00143184 0)
(-0.000204139 -0.00146578 0)
(-0.00020625 -0.00150008 0)
(-0.000208352 -0.00153472 0)
(-0.000210444 -0.00156972 0)
(-0.000212527 -0.00160506 0)
(-0.000214599 -0.00164075 0)
(-0.000216662 -0.00167678 0)
(-0.000218716 -0.00171316 0)
(-0.00022076 -0.00174987 0)
(-0.000222794 -0.00178693 0)
(-0.000224818 -0.00182433 0)
(-0.000226832 -0.00186206 0)
(-0.000228837 -0.00190012 0)
(-0.000230833 -0.00193853 0)
(-0.000232818 -0.00197726 0)
(-0.000234794 -0.00201632 0)
(-0.00023676 -0.00205571 0)
(-0.000238717 -0.00209543 0)
(-0.000240664 -0.00213547 0)
(-0.000242601 -0.00217584 0)
(-0.000244528 -0.00221652 0)
(-0.000246446 -0.00225753 0)
(-0.000248354 -0.00229886 0)
(-0.000250253 -0.00234051 0)
(-0.000252141 -0.00238247 0)
(-0.00025402 -0.00242474 0)
(-0.00025589 -0.00246733 0)
(-0.000257749 -0.00251023 0)
(-0.000259599 -0.00255343 0)
(-0.00026144 -0.00259695 0)
(-0.00026327 -0.00264077 0)
(-0.000265091 -0.00268489 0)
(-0.000266902 -0.00272932 0)
(-0.000268704 -0.00277405 0)
(-0.000270496 -0.00281908 0)
(-0.000272278 -0.0028644 0)
(-0.000274051 -0.00291002 0)
(-0.000275813 -0.00295594 0)
(-0.000277567 -0.00300215 0)
(-0.00027931 -0.00304865 0)
(-0.000281044 -0.00309544 0)
(-0.000282768 -0.00314252 0)
(-0.000284482 -0.00318988 0)
(-0.000286187 -0.00323753 0)
(-0.000287882 -0.00328547 0)
(-0.000289567 -0.00333368 0)
(-0.000291243 -0.00338218 0)
(-0.000292909 -0.00343095 0)
(-0.000294565 -0.00348 0)
(-0.000296212 -0.00352933 0)
(-0.000297849 -0.00357893 0)
(-0.000299476 -0.0036288 0)
(-0.000301093 -0.00367894 0)
(-0.000302701 -0.00372935 0)
(-0.000304299 -0.00378003 0)
(-0.000305888 -0.00383097 0)
(-0.000307467 -0.00388218 0)
(-0.000309036 -0.00393365 0)
(-0.000310595 -0.00398538 0)
(-0.000312145 -0.00403737 0)
(-0.000313685 -0.00408962 0)
(-0.000315215 -0.00414212 0)
(-0.000316736 -0.00419488 0)
(-0.000318247 -0.00424789 0)
(-0.000319749 -0.00430115 0)
(-0.00032124 -0.00435466 0)
(-0.000322722 -0.00440841 0)
(-0.000324194 -0.00446242 0)
(-0.000325657 -0.00451667 0)
(-0.00032711 -0.00457116 0)
(-0.000328553 -0.00462589 0)
(-0.000329987 -0.00468086 0)
(-0.00033141 -0.00473607 0)
(-0.000332825 -0.00479152 0)
(-0.000334229 -0.0048472 0)
(-0.000335624 -0.00490312 0)
(-0.000337009 -0.00495927 0)
(-0.000338384 -0.00501564 0)
(-0.00033975 -0.00507225 0)
(-0.000341106 -0.00512908 0)
(-0.000342452 -0.00518614 0)
(-0.000343789 -0.00524342 0)
(-0.000345116 -0.00530092 0)
(-0.000346433 -0.00535865 0)
(-0.000347741 -0.00541659 0)
(-0.000349039 -0.00547475 0)
(-0.000350327 -0.00553312 0)
(-0.000351606 -0.00559171 0)
(-0.000352875 -0.00565051 0)
(-0.000354134 -0.00570953 0)
(-0.000355383 -0.00576875 0)
(-0.000356623 -0.00582817 0)
(-0.000357853 -0.00588781 0)
(-0.000359074 -0.00594765 0)
(-0.000360284 -0.00600769 0)
(-0.000361486 -0.00606793 0)
(-0.000362677 -0.00612837 0)
(-0.000363859 -0.00618901 0)
(-0.000365031 -0.00624985 0)
(-0.000366193 -0.00631087 0)
(-0.000367346 -0.0063721 0)
(-0.000368489 -0.00643351 0)
(-0.000369622 -0.00649512 0)
(-0.000370746 -0.00655691 0)
(-0.000371859 -0.00661888 0)
(-0.000372964 -0.00668105 0)
(-0.000374058 -0.00674339 0)
(-0.000375143 -0.00680592 0)
(-0.000376218 -0.00686863 0)
(-0.000377284 -0.00693152 0)
(-0.00037834 -0.00699458 0)
(-0.000379386 -0.00705782 0)
(-0.000380422 -0.00712123 0)
(-0.000381449 -0.00718481 0)
(-0.000382466 -0.00724857 0)
(-0.000383473 -0.00731249 0)
(-0.000384471 -0.00737658 0)
(-0.000385459 -0.00744083 0)
(-0.000386437 -0.00750525 0)
(-0.000387406 -0.00756983 0)
(-0.000388365 -0.00763458 0)
(-0.000389314 -0.00769948 0)
(-0.000390254 -0.00776454 0)
(-0.000391184 -0.00782975 0)
(-0.000392104 -0.00789512 0)
(-0.000393014 -0.00796064 0)
(-0.000393915 -0.00802631 0)
(-0.000394806 -0.00809213 0)
(-0.000395688 -0.0081581 0)
(-0.00039656 -0.00822422 0)
(-0.000397422 -0.00829048 0)
(-0.000398274 -0.00835688 0)
(-0.000399117 -0.00842342 0)
(-0.00039995 -0.0084901 0)
(-0.000400773 -0.00855693 0)
(-0.000401587 -0.00862388 0)
(-0.000402391 -0.00869098 0)
(-0.000403185 -0.0087582 0)
(-0.00040397 -0.00882556 0)
(-0.000404745 -0.00889305 0)
(-0.00040551 -0.00896066 0)
(-0.000406266 -0.0090284 0)
(-0.000407011 -0.00909627 0)
(-0.000407748 -0.00916426 0)
(-0.000408474 -0.00923238 0)
(-0.000409191 -0.00930061 0)
(-0.000409898 -0.00936896 0)
(-0.000410596 -0.00943743 0)
(-0.000411283 -0.00950601 0)
(-0.000411961 -0.00957471 0)
(-0.00041263 -0.00964352 0)
(-0.000413288 -0.00971244 0)
(-0.000413938 -0.00978147 0)
(-0.000414577 -0.00985061 0)
(-0.000415207 -0.00991985 0)
(-0.000415826 -0.0099892 0)
(-0.000416437 -0.0100587 0)
(-0.000417037 -0.0101282 0)
(-0.000417628 -0.0101979 0)
(-0.00041821 -0.0102676 0)
(-0.000418781 -0.0103374 0)
(-0.000419343 -0.0104074 0)
(-0.000419895 -0.0104774 0)
(-0.000420438 -0.0105475 0)
(-0.00042097 -0.0106177 0)
(-0.000421493 -0.010688 0)
(-0.000422007 -0.0107584 0)
(-0.000422511 -0.0108289 0)
(-0.000423005 -0.0108995 0)
(-0.000423489 -0.0109701 0)
(-0.000423964 -0.0110408 0)
(-0.000424429 -0.0111116 0)
(-0.000424884 -0.0111825 0)
(-0.00042533 -0.0112534 0)
(-0.000425766 -0.0113244 0)
(-0.000426192 -0.0113955 0)
(-0.000426609 -0.0114667 0)
(-0.000427015 -0.0115379 0)
(-0.000427413 -0.0116092 0)
(-0.0004278 -0.0116806 0)
(-0.000428178 -0.011752 0)
(-0.000428546 -0.0118235 0)
(-0.000428905 -0.011895 0)
(-0.000429253 -0.0119666 0)
(-0.000429593 -0.0120383 0)
(-0.000429922 -0.01211 0)
(-0.000430242 -0.0121818 0)
(-0.000430552 -0.0122536 0)
(-0.000430852 -0.0123255 0)
(-0.000431143 -0.0123974 0)
(-0.000431424 -0.0124694 0)
(-0.000431695 -0.0125414 0)
(-0.000431957 -0.0126135 0)
(-0.000432209 -0.0126856 0)
(-0.000432451 -0.0127578 0)
(-0.000432683 -0.0128299 0)
(-0.000432906 -0.0129022 0)
(-0.00043312 -0.0129744 0)
(-0.000433323 -0.0130467 0)
(-0.000433517 -0.0131191 0)
(-0.000433701 -0.0131914 0)
(-0.000433875 -0.0132638 0)
(-0.00043404 -0.0133362 0)
(-0.000434195 -0.0134087 0)
(-0.000434341 -0.0134812 0)
(-0.000434476 -0.0135537 0)
(-0.000434603 -0.0136262 0)
(-0.000434719 -0.0136987 0)
(-0.000434826 -0.0137713 0)
(-0.000434923 -0.0138438 0)
(-0.00043501 -0.0139164 0)
(-0.000435088 -0.013989 0)
(-0.000435157 -0.0140616 0)
(-0.000435216 -0.0141343 0)
(-0.000435265 -0.0142069 0)
(-0.000435305 -0.0142796 0)
(-0.000435335 -0.0143522 0)
(-0.000435355 -0.0144249 0)
(-0.00043537 -0.0144976 0)
(-9.04201e-07 -1.63418e-07 0)
(-3.08893e-06 -1.07863e-06 0)
(-5.44795e-06 -2.35607e-06 0)
(-7.85954e-06 -3.99108e-06 0)
(-1.0276e-05 -6.02237e-06 0)
(-1.2682e-05 -8.48269e-06 0)
(-1.50739e-05 -1.13925e-05 0)
(-1.7452e-05 -1.47631e-05 0)
(-1.98176e-05 -1.85998e-05 0)
(-2.21719e-05 -2.29048e-05 0)
(-2.45161e-05 -2.7678e-05 0)
(-2.68509e-05 -3.29187e-05 0)
(-2.91767e-05 -3.86256e-05 0)
(-3.14938e-05 -4.47969e-05 0)
(-3.38026e-05 -5.14312e-05 0)
(-3.61032e-05 -5.85266e-05 0)
(-3.83955e-05 -6.60815e-05 0)
(-4.06798e-05 -7.40941e-05 0)
(-4.29559e-05 -8.25629e-05 0)
(-4.5224e-05 -9.14862e-05 0)
(-4.74839e-05 -0.000100862 0)
(-4.97358e-05 -0.00011069 0)
(-5.19796e-05 -0.000120967 0)
(-5.42154e-05 -0.000131691 0)
(-5.64431e-05 -0.000142863 0)
(-5.86627e-05 -0.000154479 0)
(-6.08742e-05 -0.000166538 0)
(-6.30777e-05 -0.000179038 0)
(-6.52731e-05 -0.000191979 0)
(-6.74604e-05 -0.000205357 0)
(-6.96397e-05 -0.000219173 0)
(-7.18109e-05 -0.000233423 0)
(-7.3974e-05 -0.000248107 0)
(-7.6129e-05 -0.000263223 0)
(-7.8276e-05 -0.000278769 0)
(-8.04149e-05 -0.000294743 0)
(-8.25457e-05 -0.000311145 0)
(-8.46685e-05 -0.000327971 0)
(-8.67832e-05 -0.000345222 0)
(-8.88898e-05 -0.000362895 0)
(-9.09884e-05 -0.000380988 0)
(-9.30788e-05 -0.0003995 0)
(-9.51613e-05 -0.000418429 0)
(-9.72356e-05 -0.000437774 0)
(-9.93019e-05 -0.000457534 0)
(-0.00010136 -0.000477705 0)
(-0.00010341 -0.000498288 0)
(-0.000105452 -0.000519279 0)
(-0.000107486 -0.000540678 0)
(-0.000109512 -0.000562484 0)
(-0.00011153 -0.000584693 0)
(-0.00011354 -0.000607306 0)
(-0.000115541 -0.000630319 0)
(-0.000117535 -0.000653732 0)
(-0.000119521 -0.000677543 0)
(-0.000121498 -0.00070175 0)
(-0.000123468 -0.000726352 0)
(-0.000125429 -0.000751347 0)
(-0.000127382 -0.000776734 0)
(-0.000129327 -0.00080251 0)
(-0.000131264 -0.000828675 0)
(-0.000133194 -0.000855226 0)
(-0.000135114 -0.000882162 0)
(-0.000137027 -0.000909482 0)
(-0.000138932 -0.000937183 0)
(-0.000140829 -0.000965264 0)
(-0.000142718 -0.000993725 0)
(-0.000144598 -0.00102256 0)
(-0.000146471 -0.00105177 0)
(-0.000148335 -0.00108136 0)
(-0.000150192 -0.00111132 0)
(-0.00015204 -0.00114165 0)
(-0.00015388 -0.00117234 0)
(-0.000155713 -0.00120341 0)
(-0.000157537 -0.00123484 0)
(-0.000159353 -0.00126663 0)
(-0.000161161 -0.00129879 0)
(-0.000162961 -0.00133131 0)
(-0.000164753 -0.00136418 0)
(-0.000166536 -0.00139742 0)
(-0.000168312 -0.00143101 0)
(-0.00017008 -0.00146495 0)
(-0.000171839 -0.00149925 0)
(-0.000173591 -0.0015339 0)
(-0.000175334 -0.0015689 0)
(-0.00017707 -0.00160424 0)
(-0.000178797 -0.00163993 0)
(-0.000180516 -0.00167597 0)
(-0.000182227 -0.00171235 0)
(-0.00018393 -0.00174907 0)
(-0.000185625 -0.00178613 0)
(-0.000187312 -0.00182353 0)
(-0.000188991 -0.00186127 0)
(-0.000190662 -0.00189934 0)
(-0.000192325 -0.00193774 0)
(-0.000193979 -0.00197648 0)
(-0.000195626 -0.00201554 0)
(-0.000197264 -0.00205494 0)
(-0.000198895 -0.00209466 0)
(-0.000200517 -0.00213471 0)
(-0.000202131 -0.00217508 0)
(-0.000203738 -0.00221577 0)
(-0.000205336 -0.00225678 0)
(-0.000206926 -0.00229811 0)
(-0.000208508 -0.00233976 0)
(-0.000210082 -0.00238173 0)
(-0.000211648 -0.00242401 0)
(-0.000213206 -0.0024666 0)
(-0.000214755 -0.0025095 0)
(-0.000216297 -0.00255271 0)
(-0.00021783 -0.00259623 0)
(-0.000219356 -0.00264005 0)
(-0.000220873 -0.00268418 0)
(-0.000222383 -0.00272861 0)
(-0.000223884 -0.00277334 0)
(-0.000225377 -0.00281837 0)
(-0.000226862 -0.0028637 0)
(-0.00022834 -0.00290933 0)
(-0.000229809 -0.00295525 0)
(-0.00023127 -0.00300146 0)
(-0.000232722 -0.00304797 0)
(-0.000234167 -0.00309476 0)
(-0.000235604 -0.00314184 0)
(-0.000237033 -0.00318921 0)
(-0.000238453 -0.00323687 0)
(-0.000239866 -0.0032848 0)
(-0.00024127 -0.00333302 0)
(-0.000242667 -0.00338152 0)
(-0.000244055 -0.0034303 0)
(-0.000245435 -0.00347935 0)
(-0.000246807 -0.00352868 0)
(-0.000248171 -0.00357829 0)
(-0.000249527 -0.00362816 0)
(-0.000250875 -0.00367831 0)
(-0.000252215 -0.00372872 0)
(-0.000253547 -0.0037794 0)
(-0.000254871 -0.00383035 0)
(-0.000256186 -0.00388156 0)
(-0.000257494 -0.00393303 0)
(-0.000258793 -0.00398477 0)
(-0.000260085 -0.00403676 0)
(-0.000261368 -0.00408901 0)
(-0.000262644 -0.00414152 0)
(-0.000263911 -0.00419428 0)
(-0.00026517 -0.00424729 0)
(-0.000266421 -0.00430056 0)
(-0.000267664 -0.00435407 0)
(-0.000268899 -0.00440783 0)
(-0.000270126 -0.00446184 0)
(-0.000271345 -0.00451609 0)
(-0.000272556 -0.00457059 0)
(-0.000273758 -0.00462533 0)
(-0.000274953 -0.0046803 0)
(-0.000276139 -0.00473552 0)
(-0.000277318 -0.00479097 0)
(-0.000278488 -0.00484665 0)
(-0.000279651 -0.00490257 0)
(-0.000280805 -0.00495872 0)
(-0.000281951 -0.00501511 0)
(-0.000283089 -0.00507171 0)
(-0.000284219 -0.00512855 0)
(-0.000285341 -0.00518561 0)
(-0.000286455 -0.0052429 0)
(-0.000287561 -0.0053004 0)
(-0.000288659 -0.00535813 0)
(-0.000289748 -0.00541608 0)
(-0.00029083 -0.00547424 0)
(-0.000291903 -0.00553262 0)
(-0.000292969 -0.00559121 0)
(-0.000294026 -0.00565002 0)
(-0.000295076 -0.00570903 0)
(-0.000296117 -0.00576826 0)
(-0.00029715 -0.00582769 0)
(-0.000298175 -0.00588733 0)
(-0.000299192 -0.00594717 0)
(-0.000300201 -0.00600721 0)
(-0.000301202 -0.00606746 0)
(-0.000302195 -0.0061279 0)
(-0.00030318 -0.00618855 0)
(-0.000304156 -0.00624939 0)
(-0.000305125 -0.00631042 0)
(-0.000306085 -0.00637165 0)
(-0.000307038 -0.00643306 0)
(-0.000307982 -0.00649467 0)
(-0.000308919 -0.00655647 0)
(-0.000309847 -0.00661845 0)
(-0.000310767 -0.00668062 0)
(-0.000311679 -0.00674297 0)
(-0.000312583 -0.0068055 0)
(-0.000313479 -0.00686821 0)
(-0.000314367 -0.0069311 0)
(-0.000315247 -0.00699417 0)
(-0.000316119 -0.00705741 0)
(-0.000316982 -0.00712082 0)
(-0.000317838 -0.00718441 0)
(-0.000318686 -0.00724817 0)
(-0.000319525 -0.0073121 0)
(-0.000320357 -0.00737619 0)
(-0.00032118 -0.00744045 0)
(-0.000321995 -0.00750487 0)
(-0.000322802 -0.00756946 0)
(-0.000323601 -0.0076342 0)
(-0.000324392 -0.00769911 0)
(-0.000325175 -0.00776417 0)
(-0.00032595 -0.00782939 0)
(-0.000326717 -0.00789476 0)
(-0.000327476 -0.00796028 0)
(-0.000328227 -0.00802596 0)
(-0.000328969 -0.00809178 0)
(-0.000329704 -0.00815776 0)
(-0.00033043 -0.00822388 0)
(-0.000331149 -0.00829014 0)
(-0.000331859 -0.00835654 0)
(-0.000332561 -0.00842309 0)
(-0.000333256 -0.00848978 0)
(-0.000333942 -0.0085566 0)
(-0.00033462 -0.00862357 0)
(-0.00033529 -0.00869066 0)
(-0.000335952 -0.00875789 0)
(-0.000336606 -0.00882525 0)
(-0.000337251 -0.00889274 0)
(-0.000337889 -0.00896036 0)
(-0.000338519 -0.00902811 0)
(-0.00033914 -0.00909598 0)
(-0.000339754 -0.00916398 0)
(-0.000340359 -0.00923209 0)
(-0.000340957 -0.00930033 0)
(-0.000341546 -0.00936869 0)
(-0.000342127 -0.00943716 0)
(-0.0003427 -0.00950575 0)
(-0.000343265 -0.00957445 0)
(-0.000343822 -0.00964326 0)
(-0.000344371 -0.00971219 0)
(-0.000344912 -0.00978122 0)
(-0.000345445 -0.00985036 0)
(-0.000345969 -0.00991961 0)
(-0.000346486 -0.00998896 0)
(-0.000346995 -0.0100584 0)
(-0.000347495 -0.010128 0)
(-0.000347988 -0.0101976 0)
(-0.000348472 -0.0102674 0)
(-0.000348948 -0.0103372 0)
(-0.000349416 -0.0104072 0)
(-0.000349877 -0.0104772 0)
(-0.000350329 -0.0105473 0)
(-0.000350773 -0.0106175 0)
(-0.000351209 -0.0106878 0)
(-0.000351637 -0.0107582 0)
(-0.000352056 -0.0108287 0)
(-0.000352468 -0.0108993 0)
(-0.000352872 -0.0109699 0)
(-0.000353267 -0.0110406 0)
(-0.000353655 -0.0111114 0)
(-0.000354034 -0.0111823 0)
(-0.000354406 -0.0112532 0)
(-0.000354769 -0.0113243 0)
(-0.000355124 -0.0113954 0)
(-0.000355471 -0.0114665 0)
(-0.00035581 -0.0115378 0)
(-0.000356141 -0.0116091 0)
(-0.000356464 -0.0116804 0)
(-0.000356779 -0.0117519 0)
(-0.000357086 -0.0118233 0)
(-0.000357385 -0.0118949 0)
(-0.000357675 -0.0119665 0)
(-0.000357958 -0.0120382 0)
(-0.000358232 -0.0121099 0)
(-0.000358499 -0.0121817 0)
(-0.000358757 -0.0122535 0)
(-0.000359008 -0.0123254 0)
(-0.00035925 -0.0123973 0)
(-0.000359484 -0.0124693 0)
(-0.00035971 -0.0125413 0)
(-0.000359928 -0.0126134 0)
(-0.000360138 -0.0126855 0)
(-0.00036034 -0.0127577 0)
(-0.000360534 -0.0128299 0)
(-0.000360719 -0.0129021 0)
(-0.000360897 -0.0129744 0)
(-0.000361067 -0.0130467 0)
(-0.000361228 -0.013119 0)
(-0.000361382 -0.0131914 0)
(-0.000361527 -0.0132638 0)
(-0.000361664 -0.0133362 0)
(-0.000361793 -0.0134086 0)
(-0.000361915 -0.0134811 0)
(-0.000362028 -0.0135536 0)
(-0.000362133 -0.0136261 0)
(-0.00036223 -0.0136987 0)
(-0.000362318 -0.0137712 0)
(-0.000362399 -0.0138438 0)
(-0.000362471 -0.0139164 0)
(-0.000362535 -0.013989 0)
(-0.000362591 -0.0140616 0)
(-0.000362638 -0.0141343 0)
(-0.000362676 -0.0142069 0)
(-0.000362705 -0.0142795 0)
(-0.000362726 -0.0143522 0)
(-0.00036274 -0.0144249 0)
(-0.000362752 -0.0144976 0)
(-7.1693e-07 8.76383e-08 0)
(-2.40665e-06 -4.65263e-07 0)
(-4.25571e-06 -1.55102e-06 0)
(-6.177e-06 -3.1002e-06 0)
(-8.12002e-06 -5.09888e-06 0)
(-1.0061e-05 -7.55086e-06 0)
(-1.19907e-05 -1.04625e-05 0)
(-1.39067e-05 -1.38386e-05 0)
(-1.58095e-05 -1.76818e-05 0)
(-1.77003e-05 -2.19928e-05 0)
(-1.95807e-05 -2.67715e-05 0)
(-2.14518e-05 -3.20171e-05 0)
(-2.33146e-05 -3.77283e-05 0)
(-2.51697e-05 -4.39036e-05 0)
(-2.70175e-05 -5.05415e-05 0)
(-2.88585e-05 -5.76404e-05 0)
(-3.06926e-05 -6.51986e-05 0)
(-3.25202e-05 -7.32145e-05 0)
(-3.43411e-05 -8.16865e-05 0)
(-3.61556e-05 -9.06129e-05 0)
(-3.79636e-05 -9.99921e-05 0)
(-3.97651e-05 -0.000109823 0)
(-4.15602e-05 -0.000120103 0)
(-4.33488e-05 -0.000130831 0)
(-4.51309e-05 -0.000142005 0)
(-4.69066e-05 -0.000153624 0)
(-4.86759e-05 -0.000165686 0)
(-5.04386e-05 -0.00017819 0)
(-5.2195e-05 -0.000191133 0)
(-5.39448e-05 -0.000204515 0)
(-5.56882e-05 -0.000218334 0)
(-5.74252e-05 -0.000232587 0)
(-5.91557e-05 -0.000247274 0)
(-6.08797e-05 -0.000262393 0)
(-6.25973e-05 -0.000277942 0)
(-6.43084e-05 -0.00029392 0)
(-6.60131e-05 -0.000310324 0)
(-6.77113e-05 -0.000327154 0)
(-6.9403e-05 -0.000344408 0)
(-7.10883e-05 -0.000362084 0)
(-7.27672e-05 -0.00038018 0)
(-7.44396e-05 -0.000398695 0)
(-7.61055e-05 -0.000417628 0)
(-7.7765e-05 -0.000436976 0)
(-7.9418e-05 -0.000456738 0)
(-8.10645e-05 -0.000476913 0)
(-8.27046e-05 -0.000497498 0)
(-8.43383e-05 -0.000518493 0)
(-8.59654e-05 -0.000539895 0)
(-8.75862e-05 -0.000561704 0)
(-8.92004e-05 -0.000583916 0)
(-9.08083e-05 -0.000606532 0)
(-9.24096e-05 -0.000629549 0)
(-9.40045e-05 -0.000652965 0)
(-9.5593e-05 -0.000676779 0)
(-9.7175e-05 -0.000700989 0)
(-9.87505e-05 -0.000725594 0)
(-0.00010032 -0.000750592 0)
(-0.000101882 -0.000775982 0)
(-0.000103438 -0.000801761 0)
(-0.000104988 -0.000827929 0)
(-0.000106531 -0.000854483 0)
(-0.000108068 -0.000881423 0)
(-0.000109598 -0.000908745 0)
(-0.000111122 -0.00093645 0)
(-0.00011264 -0.000964534 0)
(-0.000114151 -0.000992998 0)
(-0.000115655 -0.00102184 0)
(-0.000117153 -0.00105105 0)
(-0.000118645 -0.00108064 0)
(-0.00012013 -0.0011106 0)
(-0.000121609 -0.00114094 0)
(-0.000123081 -0.00117164 0)
(-0.000124547 -0.0012027 0)
(-0.000126006 -0.00123414 0)
(-0.000127459 -0.00126593 0)
(-0.000128905 -0.00129809 0)
(-0.000130345 -0.00133061 0)
(-0.000131779 -0.00136349 0)
(-0.000133206 -0.00139673 0)
(-0.000134626 -0.00143033 0)
(-0.00013604 -0.00146427 0)
(-0.000137448 -0.00149857 0)
(-0.000138849 -0.00153323 0)
(-0.000140244 -0.00156823 0)
(-0.000141632 -0.00160358 0)
(-0.000143014 -0.00163927 0)
(-0.000144389 -0.00167531 0)
(-0.000145758 -0.00171169 0)
(-0.000147121 -0.00174842 0)
(-0.000148477 -0.00178548 0)
(-0.000149826 -0.00182288 0)
(-0.000151169 -0.00186062 0)
(-0.000152506 -0.0018987 0)
(-0.000153836 -0.0019371 0)
(-0.00015516 -0.00197584 0)
(-0.000156477 -0.00201491 0)
(-0.000157788 -0.00205431 0)
(-0.000159092 -0.00209403 0)
(-0.00016039 -0.00213408 0)
(-0.000161682 -0.00217446 0)
(-0.000162967 -0.00221515 0)
(-0.000164245 -0.00225617 0)
(-0.000165517 -0.0022975 0)
(-0.000166783 -0.00233915 0)
(-0.000168042 -0.00238112 0)
(-0.000169295 -0.0024234 0)
(-0.000170541 -0.002466 0)
(-0.000171781 -0.0025089 0)