/*--------------------------------*- C++ -*----------------------------------*\
| =========                 |                                                 |
| \\      /  F ield         | foam-extend: Open Source CFD                    |
|  \\    /   O peration     | Version:     4.0                                |
|   \\  /    A nd           | Web:         http://www.foam-extend.org         |
|    \\/     M anipulation  |                                                 |
\*---------------------------------------------------------------------------*/
FoamFile
{
    version     2.0;
    format      ascii;
    class       volSymmTensorField;
    location    "1";
    object      epsilon;
}
// * * * * * * * * * * * * * * * * * * * * * * * * * * * * * * * * * * * * * //

dimensions      [0 0 0 0 0 0 0];

internalField   nonuniform List<symmTensor> 
4500
(
(-0.000461456 -5.75489e-05 -3.63507e-23 0.000141399 7.27014e-23 0)
(-0.000462284 -9.97627e-06 1.45403e-22 0.000188714 -2.18104e-22 0)
(-0.000477952 -8.5221e-07 1.45403e-22 0.000201696 -7.27014e-23 0)
(-0.00048525 1.65311e-06 -2.90806e-22 0.000207269 1.45403e-22 0)
(-0.000489352 1.70642e-06 0 0.000209621 -5.81611e-22 0)
(-0.000491531 1.15804e-06 -2.90806e-22 0.00021072 -2.90806e-22 0)
(-0.000492494 5.31477e-07 1.74483e-21 0.00021116 -2.90806e-22 0)
(-0.000492602 -2.55142e-09 0 0.000211195 -8.72417e-22 0)
(-0.000492104 -4.09088e-07 -5.81611e-22 0.000210963 0 0)
(-0.000491184 -6.99411e-07 -5.81611e-22 0.000210551 -5.81611e-22 0)
(-0.000489979 -8.97902e-07 5.81611e-22 0.000210021 -1.16322e-21 0)
(-0.000488587 -1.0291e-06 -2.90806e-21 0.000209414 5.81611e-22 0)
(-0.000487074 -1.11338e-06 -1.16322e-21 0.000208758 0 0)
(-0.000485486 -1.16612e-06 -1.16322e-21 0.000208073 0 0)
(-0.000483851 -1.19831e-06 -3.48967e-21 0.00020737 1.16322e-21 0)
(-0.00048219 -1.21745e-06 1.16322e-21 0.000206656 -2.32645e-21 0)
(-0.000480513 -1.22854e-06 -1.16322e-21 0.000205936 -3.48967e-21 0)
(-0.000478827 -1.23475e-06 4.65289e-21 0.000205212 6.97934e-21 0)
(-0.000477136 -1.23811e-06 9.30578e-21 0.000204487 0 0)
(-0.000475442 -1.23984e-06 -5.81611e-21 0.000203761 -4.65289e-21 0)
(-0.000473748 -1.24067e-06 2.32645e-21 0.000203035 2.32645e-21 0)
(-0.000472053 -1.24102e-06 -1.16322e-21 0.000202308 -4.65289e-21 0)
(-0.000470357 -1.24113e-06 2.32645e-21 0.000201582 1.39587e-20 0)
(-0.000468662 -1.24114e-06 0 0.000200855 4.65289e-21 0)
(-0.000466967 -1.24111e-06 -2.32645e-21 0.000200129 1.16322e-20 0)
(-0.000465272 -1.24106e-06 -2.32645e-21 0.000199402 6.97934e-21 0)
(-0.000463577 -1.24102e-06 0 0.000198676 9.30578e-21 0)
(-0.000461882 -1.24098e-06 2.32645e-21 0.000197949 9.30578e-21 0)
(-0.000460187 -1.24096e-06 0 0.000197223 -4.65289e-21 0)
(-0.000458492 -1.24094e-06 0 0.000196496 -4.65289e-21 0)
(-0.000456797 -1.24093e-06 -6.97934e-21 0.00019577 -1.39587e-20 0)
(-0.000455102 -1.24092e-06 -2.32645e-21 0.000195044 4.65289e-21 0)
(-0.000453407 -1.24092e-06 4.65289e-21 0.000194317 4.65289e-21 0)
(-0.000451712 -1.24091e-06 -2.32645e-21 0.000193591 -9.30578e-21 0)
(-0.000450017 -1.24091e-06 6.97934e-21 0.000192865 9.30578e-21 0)
(-0.000448322 -1.24091e-06 -4.65289e-21 0.000192138 4.65289e-21 0)
(-0.000446627 -1.24091e-06 -1.39587e-20 0.000191412 0 0)
(-0.000444933 -1.24091e-06 9.30578e-21 0.000190685 0 0)
(-0.000443238 -1.24091e-06 2.32645e-21 0.000189959 -9.30578e-21 0)
(-0.000441543 -1.24091e-06 2.32645e-21 0.000189233 -2.79173e-20 0)
(-0.000439848 -1.24091e-06 4.65289e-21 0.000188506 -1.86116e-20 0)
(-0.000438153 -1.24091e-06 1.16322e-20 0.00018778 -2.79173e-20 0)
(-0.000436458 -1.24091e-06 2.32645e-21 0.000187053 2.79173e-20 0)
(-0.000434763 -1.24091e-06 -2.32645e-21 0.000186327 -2.79173e-20 0)
(-0.000433068 -1.24091e-06 -9.30578e-21 0.000185601 -3.72231e-20 0)
(-0.000431373 -1.24091e-06 4.65289e-21 0.000184874 0 0)
(-0.000429678 -1.24091e-06 0 0.000184148 -9.30578e-21 0)
(-0.000427984 -1.24091e-06 -4.65289e-21 0.000183422 -9.30578e-20 0)
(-0.000426289 -1.24091e-06 2.32645e-21 0.000182695 -9.30578e-21 0)
(-0.000424594 -1.24091e-06 -2.32645e-21 0.000181969 -9.30578e-21 0)
(-0.000422899 -1.24091e-06 9.30578e-21 0.000181242 1.86116e-20 0)
(-0.000421204 -1.24091e-06 -4.65289e-21 0.000180516 0 0)
(-0.000419509 -1.24091e-06 -4.65289e-21 0.00017979 -1.86116e-20 0)
(-0.000417814 -1.24091e-06 -4.65289e-21 0.000179063 -5.58347e-20 0)
(-0.000416119 -1.24091e-06 9.30578e-21 0.000178337 -5.58347e-20 0)
(-0.000414424 -1.24091e-06 -1.39587e-20 0.00017761 5.58347e-20 0)
(-0.000412729 -1.24091e-06 -1.39587e-20 0.000176884 0 0)
(-0.000411035 -1.24091e-06 0 0.000176158 0 0)
(-0.00040934 -1.24091e-06 4.65289e-21 0.000175431 5.58347e-20 0)
(-0.000407645 -1.24091e-06 -1.39587e-20 0.000174705 -5.58347e-20 0)
(-0.00040595 -1.24091e-06 4.65289e-21 0.000173978 -1.86116e-20 0)
(-0.000404255 -1.24091e-06 0 0.000173252 0 0)
(-0.00040256 -1.24091e-06 -4.65289e-21 0.000172526 0 0)
(-0.000400865 -1.24091e-06 -4.65289e-21 0.000171799 -5.58347e-20 0)
(-0.00039917 -1.24091e-06 4.65289e-21 0.000171073 9.30578e-20 0)
(-0.000397475 -1.24091e-06 4.65289e-21 0.000170347 -3.72231e-20 0)
(-0.00039578 -1.24091e-06 0 0.00016962 -3.72231e-20 0)
(-0.000394086 -1.24091e-06 4.65289e-21 0.000168894 -1.86116e-20 0)
(-0.000392391 -1.24091e-06 4.65289e-21 0.000168167 1.86116e-20 0)
(-0.000390696 -1.24091e-06 4.65289e-21 0.000167441 -3.72231e-20 0)
(-0.000389001 -1.24091e-06 9.30578e-21 0.000166715 -3.72231e-20 0)
(-0.000387306 -1.24091e-06 -4.65289e-21 0.000165988 0 0)
(-0.000385611 -1.24091e-06 0 0.000165262 1.86116e-20 0)
(-0.000383916 -1.24091e-06 -9.30578e-21 0.000164535 -3.72231e-20 0)
(-0.000382221 -1.24091e-06 0 0.000163809 0 0)
(-0.000380526 -1.24091e-06 9.30578e-21 0.000163083 0 0)
(-0.000378831 -1.24091e-06 -9.30578e-21 0.000162356 1.86116e-20 0)
(-0.000377137 -1.24091e-06 4.65289e-21 0.00016163 0 0)
(-0.000375442 -1.24091e-06 0 0.000160904 -1.11669e-19 0)
(-0.000373747 -1.24091e-06 4.65289e-21 0.000160177 3.72231e-20 0)
(-0.000372052 -1.24091e-06 0 0.000159451 7.44463e-20 0)
(-0.000370357 -1.24091e-06 0 0.000158724 3.72231e-20 0)
(-0.000368662 -1.24091e-06 0 0.000157998 0 0)
(-0.000366967 -1.24091e-06 -4.65289e-21 0.000157272 3.72231e-20 0)
(-0.000365272 -1.24091e-06 1.39587e-20 0.000156545 7.44463e-20 0)
(-0.000363577 -1.24091e-06 1.39587e-20 0.000155819 7.44463e-20 0)
(-0.000361882 -1.24091e-06 -4.65289e-21 0.000155092 7.44463e-20 0)
(-0.000360188 -1.24091e-06 -4.65289e-21 0.000154366 7.44463e-20 0)
(-0.000358493 -1.24091e-06 3.72231e-20 0.00015364 3.72231e-20 0)
(-0.000356798 -1.24091e-06 9.30578e-21 0.000152913 -7.44463e-20 0)
(-0.000355103 -1.24091e-06 4.65289e-21 0.000152187 0 0)
(-0.000353408 -1.24091e-06 0 0.000151461 -3.72231e-20 0)
(-0.000351713 -1.24091e-06 -4.65289e-21 0.000150734 7.44463e-20 0)
(-0.000350018 -1.24091e-06 0 0.000150008 2.23339e-19 0)
(-0.000348323 -1.24091e-06 0 0.000149281 7.44463e-20 0)
(-0.000346628 -1.24091e-06 0 0.000148555 7.44463e-20 0)
(-0.000344933 -1.24091e-06 -4.65289e-21 0.000147829 1.48893e-19 0)
(-0.000343239 -1.24091e-06 4.65289e-21 0.000147102 7.44463e-20 0)
(-0.000341544 -1.24091e-06 2.79173e-20 0.000146376 2.97785e-19 0)
(-0.000339849 -1.24091e-06 9.30578e-21 0.000145649 0 0)
(-0.000338154 -1.24091e-06 -1.39587e-20 0.000144923 -1.86116e-19 0)
(-0.000336459 -1.24091e-06 0 0.000144197 0 0)
(-0.000334764 -1.24091e-06 0 0.00014347 3.72231e-20 0)
(-0.000333069 -1.24091e-06 -4.65289e-21 0.000142744 -3.72231e-20 0)
(-0.000331374 -1.24091e-06 2.32645e-20 0.000142018 3.72231e-20 0)
(-0.000329679 -1.24091e-06 1.39587e-20 0.000141291 7.44463e-20 0)
(-0.000327984 -1.24091e-06 -1.86116e-20 0.000140565 -1.48893e-19 0)
(-0.00032629 -1.24091e-06 2.32645e-20 0.000139838 4.09454e-19 0)
(-0.000324595 -1.24091e-06 -9.30578e-21 0.000139112 1.11669e-19 0)
(-0.0003229 -1.24091e-06 9.30578e-21 0.000138386 0 0)
(-0.000321205 -1.24091e-06 9.30578e-21 0.000137659 -3.72231e-20 0)
(-0.00031951 -1.24091e-06 0 0.000136933 1.48893e-19 0)
(-0.000317815 -1.24091e-06 -4.65289e-21 0.000136206 -7.44463e-20 0)
(-0.00031612 -1.24091e-06 2.32645e-20 0.00013548 1.48893e-19 0)
(-0.000314425 -1.24091e-06 4.65289e-21 0.000134754 -7.44463e-20 0)
(-0.00031273 -1.24091e-06 -9.30578e-21 0.000134027 -1.48893e-19 0)
(-0.000311035 -1.24091e-06 0 0.000133301 7.44463e-20 0)
(-0.000309341 -1.24091e-06 -4.1876e-20 0.000132575 2.97785e-19 0)
(-0.000307646 -1.24091e-06 -9.30578e-21 0.000131848 7.44463e-20 0)
(-0.000305951 -1.24091e-06 -3.72231e-20 0.000131122 2.97785e-19 0)
(-0.000304256 -1.24091e-06 -4.65289e-20 0.000130395 -2.97785e-19 0)
(-0.000302561 -1.24091e-06 -2.79173e-20 0.000129669 -1.48893e-19 0)
(-0.000300866 -1.24091e-06 9.30578e-21 0.000128943 -2.23339e-19 0)
(-0.000299171 -1.24091e-06 0 0.000128216 -4.46678e-19 0)
(-0.000297476 -1.24091e-06 9.30578e-21 0.00012749 0 0)
(-0.000295781 -1.24091e-06 -9.30578e-21 0.000126763 1.48893e-19 0)
(-0.000294086 -1.24091e-06 -1.86116e-20 0.000126037 -7.44463e-20 0)
(-0.000292391 -1.24091e-06 2.79173e-20 0.000125311 -7.44463e-20 0)
(-0.000290697 -1.24091e-06 4.65289e-20 0.000124584 -7.44463e-20 0)
(-0.000289002 -1.24091e-06 9.30578e-21 0.000123858 -2.23339e-19 0)
(-0.000287307 -1.24091e-06 -9.30578e-21 0.000123131 2.97785e-19 0)
(-0.000285612 -1.24091e-06 2.79173e-20 0.000122405 5.21124e-19 0)
(-0.000283917 -1.24091e-06 -1.86116e-20 0.000121679 -3.72231e-19 0)
(-0.000282222 -1.24091e-06 2.79173e-20 0.000120952 2.97785e-19 0)
(-0.000280527 -1.24091e-06 0 0.000120226 -7.44463e-20 0)
(-0.000278832 -1.24091e-06 -1.86116e-20 0.0001195 7.44463e-20 0)
(-0.000277137 -1.24091e-06 1.86116e-20 0.000118773 -7.44463e-20 0)
(-0.000275442 -1.24091e-06 -5.58347e-20 0.000118047 7.44463e-20 0)
(-0.000273748 -1.24091e-06 -9.30578e-21 0.00011732 -7.44463e-20 0)
(-0.000272053 -1.24091e-06 9.30578e-21 0.000116594 1.48893e-19 0)
(-0.000270358 -1.24091e-06 4.65289e-20 0.000115868 7.44463e-20 0)
(-0.000268663 -1.24091e-06 -9.30578e-21 0.000115141 2.97785e-19 0)
(-0.000266968 -1.24091e-06 -9.30578e-21 0.000114415 -7.44463e-20 0)
(-0.000265273 -1.24091e-06 -1.86116e-20 0.000113688 -2.97785e-19 0)
(-0.000263578 -1.24091e-06 9.30578e-21 0.000112962 -1.48893e-19 0)
(-0.000261883 -1.24091e-06 -1.86116e-20 0.000112236 0 0)
(-0.000260188 -1.24091e-06 -9.30578e-21 0.000111509 -1.48893e-19 0)
(-0.000258493 -1.24091e-06 -1.86116e-20 0.000110783 -1.48893e-19 0)
(-0.000256799 -1.24091e-06 -1.86116e-20 0.000110057 -7.44463e-20 0)
(-0.000255104 -1.24091e-06 -1.86116e-20 0.00010933 2.23339e-19 0)
(-0.000253409 -1.24091e-06 -9.30578e-21 0.000108604 0 0)
(-0.000251714 -1.24091e-06 -9.30578e-21 0.000107877 1.48893e-19 0)
(-0.000250019 -1.24091e-06 9.30578e-21 0.000107151 7.44463e-20 0)
(-0.000248324 -1.24091e-06 1.86116e-20 0.000106425 1.48893e-19 0)
(-0.000246629 -1.24091e-06 2.79173e-20 0.000105698 -1.48893e-19 0)
(-0.000244934 -1.24091e-06 0 0.000104972 7.44463e-20 0)
(-0.000243239 -1.24091e-06 0 0.000104245 -1.48893e-19 0)
(-0.000241544 -1.24091e-06 2.79173e-20 0.000103519 7.44463e-20 0)
(-0.00023985 -1.24091e-06 0 0.000102793 -2.23339e-19 0)
(-0.000238155 -1.24091e-06 1.86116e-20 0.000102066 5.21124e-19 0)
(-0.00023646 -1.24091e-06 -1.86116e-20 0.00010134 -1.48893e-19 0)
(-0.000234765 -1.24091e-06 1.86116e-20 0.000100614 2.23339e-19 0)
(-0.00023307 -1.24091e-06 2.79173e-20 9.98871e-05 1.48893e-19 0)
(-0.000231375 -1.24091e-06 9.30578e-21 9.91608e-05 -2.23339e-19 0)
(-0.00022968 -1.24091e-06 9.30578e-21 9.84344e-05 7.44463e-20 0)
(-0.000227985 -1.24091e-06 0 9.7708e-05 4.46678e-19 0)
(-0.00022629 -1.24091e-06 0 9.69816e-05 0 0)
(-0.000224595 -1.24091e-06 0 9.62552e-05 2.97785e-19 0)
(-0.000222901 -1.24091e-06 9.30578e-21 9.55288e-05 4.46678e-19 0)
(-0.000221206 -1.24091e-06 -1.86116e-20 9.48024e-05 -2.97785e-19 0)
(-0.000219511 -1.24091e-06 2.79173e-20 9.40761e-05 5.9557e-19 0)
(-0.000217816 -1.24091e-06 9.30578e-21 9.33497e-05 -2.97785e-19 0)
(-0.000216121 -1.24091e-06 9.30578e-21 9.26233e-05 1.48893e-19 0)
(-0.000214426 -1.24091e-06 -2.79173e-20 9.18969e-05 -4.46678e-19 0)
(-0.000212731 -1.24091e-06 9.30578e-21 9.11705e-05 4.46678e-19 0)
(-0.000211036 -1.24091e-06 2.79173e-20 9.04441e-05 4.46678e-19 0)
(-0.000209341 -1.24091e-06 2.79173e-20 8.97177e-05 1.48893e-19 0)
(-0.000207646 -1.24091e-06 -4.65289e-20 8.89914e-05 -2.97785e-19 0)
(-0.000205952 -1.24091e-06 0 8.8265e-05 -1.48893e-19 0)
(-0.000204257 -1.24091e-06 -9.30578e-21 8.75386e-05 -1.48893e-19 0)
(-0.000202562 -1.24091e-06 9.30578e-21 8.68122e-05 -2.97785e-19 0)
(-0.000200867 -1.24091e-06 0 8.60858e-05 -2.97785e-19 0)
(-0.000199172 -1.24091e-06 9.30578e-21 8.53594e-05 4.46678e-19 0)
(-0.000197477 -1.24091e-06 1.86116e-20 8.4633e-05 -4.46678e-19 0)
(-0.000195782 -1.24091e-06 4.65289e-20 8.39067e-05 0 0)
(-0.000194087 -1.24091e-06 -9.30578e-21 8.31803e-05 -1.48893e-19 0)
(-0.000192392 -1.24091e-06 1.86116e-20 8.24539e-05 0 0)
(-0.000190697 -1.24091e-06 9.30578e-21 8.17275e-05 5.9557e-19 0)
(-0.000189003 -1.24091e-06 0 8.10011e-05 7.44463e-19 0)
(-0.000187308 -1.24091e-06 9.30578e-21 8.02747e-05 0 0)
(-0.000185613 -1.24091e-06 9.30578e-21 7.95483e-05 1.48893e-19 0)
(-0.000183918 -1.24091e-06 -1.86116e-20 7.8822e-05 1.48893e-19 0)
(-0.000182223 -1.24091e-06 9.30578e-21 7.80956e-05 -1.48893e-19 0)
(-0.000180528 -1.24091e-06 0 7.73692e-05 0 0)
(-0.000178833 -1.24091e-06 -3.72231e-20 7.66428e-05 4.46678e-19 0)
(-0.000177138 -1.24091e-06 2.79173e-20 7.59164e-05 4.46678e-19 0)
(-0.000175443 -1.24091e-06 -9.30578e-21 7.519e-05 -2.97785e-19 0)
(-0.000173748 -1.24091e-06 -1.86116e-20 7.44636e-05 -2.97785e-19 0)
(-0.000172054 -1.24091e-06 3.72231e-20 7.37372e-05 1.48893e-19 0)
(-0.000170359 -1.24091e-06 -2.79173e-20 7.30109e-05 2.97785e-19 0)
(-0.000168664 -1.24091e-06 -9.30578e-21 7.22845e-05 4.46678e-19 0)
(-0.000166969 -1.24091e-06 0 7.15581e-05 1.48893e-19 0)
(-0.000165274 -1.24091e-06 3.72231e-20 7.08317e-05 1.48893e-19 0)
(-0.000163579 -1.24091e-06 1.86116e-20 7.01053e-05 2.97785e-19 0)
(-0.000161884 -1.24091e-06 -9.30578e-21 6.93789e-05 -2.97785e-19 0)
(-0.000160189 -1.24091e-06 4.65289e-20 6.86525e-05 2.97785e-19 0)
(-0.000158494 -1.24091e-06 3.72231e-20 6.79262e-05 -4.46678e-19 0)
(-0.000156799 -1.24091e-06 -1.86116e-20 6.71998e-05 1.48893e-19 0)
(-0.000155105 -1.24091e-06 -2.79173e-20 6.64734e-05 4.46678e-19 0)
(-0.00015341 -1.24091e-06 9.30578e-21 6.5747e-05 5.9557e-19 0)
(-0.000151715 -1.24091e-06 -1.86116e-20 6.50206e-05 2.97785e-19 0)
(-0.00015002 -1.24091e-06 9.30578e-21 6.42942e-05 8.93355e-19 0)
(-0.000148325 -1.24091e-06 9.30578e-21 6.35678e-05 1.48893e-19 0)
(-0.00014663 -1.24091e-06 0 6.28415e-05 8.93355e-19 0)
(-0.000144935 -1.24091e-06 -9.30578e-21 6.21151e-05 1.48893e-19 0)
(-0.00014324 -1.24091e-06 -9.30578e-21 6.13887e-05 2.97785e-19 0)
(-0.000141545 -1.24091e-06 3.72231e-20 6.06623e-05 4.46678e-19 0)
(-0.00013985 -1.24091e-06 0 5.99359e-05 0 0)
(-0.000138156 -1.24091e-06 -2.79173e-20 5.92095e-05 1.48893e-19 0)
(-0.000136461 -1.24091e-06 -9.30578e-21 5.84831e-05 -2.97785e-19 0)
(-0.000134766 -1.24091e-06 9.30578e-21 5.77568e-05 -1.48893e-19 0)
(-0.000133071 -1.24091e-06 5.58347e-20 5.70304e-05 1.04225e-18 0)
(-0.000131376 -1.24091e-06 1.86116e-20 5.6304e-05 4.46678e-19 0)
(-0.000129681 -1.24091e-06 9.30578e-21 5.55776e-05 0 0)
(-0.000127986 -1.24091e-06 1.86116e-20 5.48512e-05 -1.48893e-19 0)
(-0.000126291 -1.24091e-06 0 5.41248e-05 -1.48893e-19 0)
(-0.000124596 -1.24091e-06 -1.86116e-20 5.33984e-05 -1.48893e-19 0)
(-0.000122901 -1.24091e-06 -9.30578e-21 5.26721e-05 -2.97785e-19 0)
(-0.000121207 -1.24091e-06 1.86116e-20 5.19457e-05 7.44463e-19 0)
(-0.000119512 -1.24091e-06 -9.30578e-21 5.12193e-05 1.48893e-19 0)
(-0.000117817 -1.24091e-06 -1.86116e-20 5.04929e-05 -1.48893e-19 0)
(-0.000116122 -1.24091e-06 1.86116e-20 4.97665e-05 2.97785e-19 0)
(-0.000114427 -1.24091e-06 1.86116e-20 4.90401e-05 -1.48893e-19 0)
(-0.000112732 -1.24091e-06 9.30578e-21 4.83137e-05 -1.48893e-19 0)
(-0.000111037 -1.24091e-06 9.30578e-21 4.75874e-05 4.46678e-19 0)
(-0.000109342 -1.24091e-06 3.72231e-20 4.6861e-05 -5.9557e-19 0)
(-0.000107647 -1.24091e-06 0 4.61346e-05 1.48893e-19 0)
(-0.000105952 -1.24091e-06 -1.86116e-20 4.54082e-05 2.97785e-19 0)
(-0.000104258 -1.24091e-06 1.86116e-20 4.46818e-05 0 0)
(-0.000102563 -1.24091e-06 0 4.39554e-05 1.48893e-19 0)
(-0.000100868 -1.24091e-06 -9.30578e-21 4.3229e-05 2.97785e-19 0)
(-9.91729e-05 -1.24091e-06 0 4.25027e-05 1.48893e-19 0)
(-9.7478e-05 -1.24091e-06 -1.86116e-20 4.17763e-05 0 0)
(-9.57831e-05 -1.24091e-06 1.86116e-20 4.10499e-05 1.48893e-19 0)
(-9.40882e-05 -1.24091e-06 0 4.03235e-05 -2.97785e-19 0)
(-9.23933e-05 -1.24091e-06 1.86116e-20 3.95971e-05 4.46678e-19 0)
(-9.06984e-05 -1.24091e-06 2.79173e-20 3.88707e-05 1.48893e-19 0)
(-8.90035e-05 -1.24091e-06 -1.86116e-20 3.81443e-05 -2.97785e-19 0)
(-8.73086e-05 -1.24091e-06 9.30578e-21 3.7418e-05 5.9557e-19 0)
(-8.56137e-05 -1.24091e-06 -9.30578e-21 3.66916e-05 -1.48893e-18 0)
(-8.39188e-05 -1.24091e-06 9.30578e-21 3.59652e-05 -2.97785e-19 0)
(-8.22239e-05 -1.24091e-06 -1.86116e-20 3.52388e-05 0 0)
(-8.0529e-05 -1.24091e-06 -9.30578e-21 3.45124e-05 -8.93355e-19 0)
(-7.88341e-05 -1.24091e-06 -4.65289e-20 3.3786e-05 2.97785e-19 0)
(-7.71392e-05 -1.24091e-06 0 3.30596e-05 -2.97785e-19 0)
(-7.54443e-05 -1.24091e-06 3.72231e-20 3.23333e-05 8.93355e-19 0)
(-7.37494e-05 -1.24091e-06 -9.30578e-21 3.16069e-05 5.9557e-19 0)
(-7.20545e-05 -1.24091e-06 9.30578e-21 3.08805e-05 2.97785e-19 0)
(-7.03596e-05 -1.24091e-06 -3.72231e-20 3.01541e-05 2.97785e-19 0)
(-6.86647e-05 -1.24091e-06 9.30578e-21 2.94277e-05 -5.9557e-19 0)
(-6.69698e-05 -1.24091e-06 -2.79173e-20 2.87013e-05 2.97785e-19 0)
(-6.52749e-05 -1.24091e-06 9.30578e-21 2.79749e-05 1.19114e-18 0)
(-6.358e-05 -1.24091e-06 -9.30578e-21 2.72486e-05 1.19114e-18 0)
(-6.18851e-05 -1.24091e-06 -9.30578e-21 2.65222e-05 0 0)
(-6.01902e-05 -1.24091e-06 9.30578e-21 2.57958e-05 -5.9557e-19 0)
(-5.84953e-05 -1.24091e-06 0 2.50694e-05 2.97785e-19 0)
(-5.68004e-05 -1.24091e-06 -9.30578e-21 2.4343e-05 2.97785e-19 0)
(-5.51055e-05 -1.24091e-06 -4.65289e-20 2.36166e-05 1.48893e-18 0)
(-5.34106e-05 -1.24091e-06 -9.30578e-21 2.28902e-05 0 0)
(-5.17157e-05 -1.24091e-06 -9.30578e-21 2.21639e-05 1.19114e-18 0)
(-5.00208e-05 -1.24091e-06 0 2.14375e-05 0 0)
(-4.83259e-05 -1.24091e-06 0 2.07111e-05 2.97785e-19 0)
(-4.6631e-05 -1.24091e-06 0 1.99847e-05 2.97785e-19 0)
(-4.4936e-05 -1.24092e-06 -9.30578e-21 1.92583e-05 -5.9557e-19 0)
(-4.32411e-05 -1.24092e-06 2.79173e-20 1.85319e-05 2.97785e-19 0)
(-4.15462e-05 -1.24093e-06 -9.30578e-21 1.78055e-05 -2.97785e-19 0)
(-3.98513e-05 -1.24093e-06 0 1.70791e-05 2.97785e-19 0)
(-3.81564e-05 -1.24094e-06 0 1.63527e-05 -2.97785e-19 0)
(-3.64614e-05 -1.24094e-06 1.86116e-20 1.56263e-05 -8.93355e-19 0)
(-3.47665e-05 -1.24094e-06 0 1.48999e-05 8.93355e-19 0)
(-3.30715e-05 -1.24091e-06 1.86116e-20 1.41735e-05 2.97785e-19 0)
(-3.13766e-05 -1.24083e-06 0 1.34471e-05 -2.97785e-19 0)
(-2.96818e-05 -1.24066e-06 2.79173e-20 1.27207e-05 5.9557e-19 0)
(-2.79873e-05 -1.24031e-06 9.30578e-21 1.19945e-05 2.97785e-19 0)
(-2.62932e-05 -1.23966e-06 2.79173e-20 1.12684e-05 2.97785e-19 0)
(-2.46001e-05 -1.23848e-06 -9.30578e-21 1.05426e-05 5.9557e-19 0)
(-2.29086e-05 -1.23641e-06 1.86116e-20 9.81747e-06 5.9557e-19 0)
(-2.12201e-05 -1.23286e-06 -2.79173e-20 9.09348e-06 5.9557e-19 0)
(-1.95367e-05 -1.22697e-06 -9.30578e-21 8.37145e-06 2.97785e-19 0)
(-1.78616e-05 -1.2174e-06 9.30578e-21 7.65272e-06 8.93355e-19 0)
(-1.62002e-05 -1.20224e-06 0 6.93941e-06 0 0)
(-1.45603e-05 -1.17883e-06 -2.79173e-20 6.23481e-06 8.93355e-19 0)
(-1.29539e-05 -1.14366e-06 9.30578e-21 5.54394e-06 2.97785e-19 0)
(-1.13983e-05 -1.09268e-06 -9.30578e-21 4.87438e-06 -5.9557e-19 0)
(-9.91869e-06 -1.02228e-06 9.30578e-21 4.23796e-06 5.9557e-19 0)
(-8.55216e-06 -9.33145e-07 -2.79173e-20 3.65484e-06 -2.97785e-19 0)
(-7.35958e-06 -8.40306e-07 -2.79173e-20 3.16368e-06 1.19114e-18 0)
(-6.42219e-06 -8.24641e-07 -2.79173e-20 2.86695e-06 1.19114e-18 0)
(-5.97901e-06 -1.06516e-06 2.79173e-20 2.90587e-06 -8.93355e-19 0)
(-4.35692e-06 -3.25075e-06 -9.30578e-21 4.41201e-06 2.97785e-19 0)
(-0.000390183 -7.70979e-05 0 6.36021e-05 -3.63507e-23 0)
(-0.000419639 -3.3495e-05 -7.27014e-23 0.000147189 -1.09052e-22 0)
(-0.000426617 -1.07496e-05 -1.45403e-22 0.000173029 -1.45403e-22 0)
(-0.000427573 -2.11481e-06 4.36209e-22 0.000180614 -4.36209e-22 0)
(-0.000427047 4.15717e-07 -2.90806e-22 0.000182742 -2.90806e-22 0)
(-0.000426175 5.28214e-07 -2.90806e-22 0.00018308 0 0)
(-0.000425179 -1.59845e-07 0 0.000182787 2.90806e-22 0)
(-0.000424091 -9.90788e-07 5.81611e-22 0.00018226 -8.72417e-22 0)
(-0.000422915 -1.72307e-06 -5.81611e-22 0.000181644 -1.16322e-21 0)
(-0.000421663 -2.29237e-06 -5.81611e-22 0.000180999 1.16322e-21 0)
(-0.00042035 -2.70481e-06 0 0.000180347 5.81611e-22 0)
(-0.00041899 -2.98969e-06 0 0.000179699 -1.74483e-21 0)
(-0.000417598 -3.17942e-06 1.74483e-21 0.000179055 4.65289e-21 0)
(-0.000416183 -3.30199e-06 5.81611e-22 0.000178418 -1.16322e-21 0)
(-0.000414754 -3.37906e-06 -1.16322e-21 0.000177784 -3.48967e-21 0)
(-0.000413315 -3.42627e-06 1.16322e-21 0.000177154 -2.32645e-21 0)
(-0.00041187 -3.45445e-06 1.16322e-21 0.000176527 -1.16322e-21 0)
(-0.000410422 -3.47081e-06 5.81611e-21 0.000175901 1.16322e-21 0)
(-0.000408971 -3.48002e-06 -1.16322e-21 0.000175277 2.32645e-21 0)
(-0.00040752 -3.48501e-06 -2.32645e-21 0.000174653 0 0)
(-0.000406068 -3.4876e-06 1.16322e-21 0.00017403 -2.32645e-21 0)
(-0.000404615 -3.48884e-06 0 0.000173407 1.39587e-20 0)
(-0.000403162 -3.48938e-06 -1.16322e-21 0.000172784 1.16322e-20 0)
(-0.00040171 -3.48956e-06 1.16322e-21 0.000172161 0 0)
(-0.000400257 -3.48958e-06 2.32645e-21 0.000171539 -4.65289e-21 0)
(-0.000398804 -3.48953e-06 -1.16322e-21 0.000170916 0 0)
(-0.000397351 -3.48946e-06 -4.65289e-21 0.000170293 4.65289e-21 0)
(-0.000395899 -3.4894e-06 6.97934e-21 0.000169671 4.65289e-21 0)
(-0.000394446 -3.48936e-06 -1.16322e-21 0.000169048 -9.30578e-21 0)
(-0.000392993 -3.48932e-06 -2.32645e-21 0.000168426 0 0)
(-0.00039154 -3.48929e-06 9.30578e-21 0.000167803 2.32645e-20 0)
(-0.000390087 -3.48928e-06 -2.32645e-21 0.00016718 9.30578e-21 0)
(-0.000388635 -3.48926e-06 0 0.000166558 -4.65289e-21 0)
(-0.000387182 -3.48926e-06 2.32645e-21 0.000165935 -4.65289e-21 0)
(-0.000385729 -3.48925e-06 2.32645e-21 0.000165312 9.30578e-21 0)
(-0.000384276 -3.48925e-06 1.39587e-20 0.00016469 2.79173e-20 0)
(-0.000382824 -3.48925e-06 6.97934e-21 0.000164067 4.65289e-21 0)
(-0.000381371 -3.48925e-06 4.65289e-21 0.000163445 -9.30578e-21 0)
(-0.000379918 -3.48925e-06 0 0.000162822 -3.72231e-20 0)
(-0.000378465 -3.48925e-06 2.32645e-21 0.000162199 -9.30578e-21 0)
(-0.000377012 -3.48925e-06 4.65289e-21 0.000161577 -9.30578e-21 0)
(-0.00037556 -3.48925e-06 0 0.000160954 -9.30578e-21 0)
(-0.000374107 -3.48925e-06 -4.65289e-21 0.000160332 0 0)
(-0.000372654 -3.48925e-06 -2.32645e-21 0.000159709 1.86116e-20 0)
(-0.000371201 -3.48925e-06 4.65289e-21 0.000159086 -4.65289e-20 0)
(-0.000369749 -3.48925e-06 2.32645e-21 0.000158464 9.30578e-21 0)
(-0.000368296 -3.48925e-06 0 0.000157841 0 0)
(-0.000366843 -3.48925e-06 -9.30578e-21 0.000157218 -1.86116e-20 0)
(-0.00036539 -3.48925e-06 1.16322e-20 0.000156596 -1.86116e-20 0)
(-0.000363937 -3.48925e-06 -2.32645e-21 0.000155973 -9.30578e-21 0)
(-0.000362485 -3.48925e-06 0 0.000155351 1.86116e-20 0)
(-0.000361032 -3.48925e-06 0 0.000154728 1.86116e-20 0)
(-0.000359579 -3.48925e-06 4.65289e-21 0.000154105 -1.86116e-20 0)
(-0.000358126 -3.48925e-06 -1.16322e-20 0.000153483 -3.72231e-20 0)
(-0.000356674 -3.48925e-06 0 0.00015286 -1.86116e-20 0)
(-0.000355221 -3.48925e-06 1.39587e-20 0.000152238 -3.72231e-20 0)
(-0.000353768 -3.48925e-06 -2.32645e-21 0.000151615 -5.58347e-20 0)
(-0.000352315 -3.48925e-06 -9.30578e-21 0.000150992 -1.86116e-20 0)
(-0.000350863 -3.48925e-06 6.97934e-21 0.00015037 -1.86116e-20 0)
(-0.00034941 -3.48925e-06 1.62851e-20 0.000149747 1.48893e-19 0)
(-0.000347957 -3.48925e-06 -6.97934e-21 0.000149124 -3.72231e-20 0)
(-0.000346504 -3.48925e-06 0 0.000148502 0 0)
(-0.000345051 -3.48925e-06 0 0.000147879 -1.86116e-20 0)
(-0.000343599 -3.48925e-06 0 0.000147257 0 0)
(-0.000342146 -3.48925e-06 0 0.000146634 3.72231e-20 0)
(-0.000340693 -3.48925e-06 2.32645e-20 0.000146011 0 0)
(-0.00033924 -3.48925e-06 0 0.000145389 -1.86116e-20 0)
(-0.000337788 -3.48925e-06 -1.86116e-20 0.000144766 -1.11669e-19 0)
(-0.000336335 -3.48925e-06 1.39587e-20 0.000144143 9.30578e-20 0)
(-0.000334882 -3.48925e-06 9.30578e-21 0.000143521 1.11669e-19 0)
(-0.000333429 -3.48925e-06 -4.65289e-21 0.000142898 -1.30281e-19 0)
(-0.000331976 -3.48925e-06 4.65289e-21 0.000142276 3.72231e-20 0)
(-0.000330524 -3.48925e-06 0 0.000141653 -1.86116e-20 0)
(-0.000329071 -3.48925e-06 -4.65289e-21 0.00014103 -1.86116e-20 0)
(-0.000327618 -3.48925e-06 0 0.000140408 -1.86116e-20 0)
(-0.000326165 -3.48925e-06 -4.65289e-21 0.000139785 1.86116e-20 0)
(-0.000324713 -3.48925e-06 4.65289e-21 0.000139163 1.86116e-20 0)
(-0.00032326 -3.48925e-06 4.65289e-21 0.00013854 1.86116e-20 0)
(-0.000321807 -3.48925e-06 0 0.000137917 7.44463e-20 0)
(-0.000320354 -3.48925e-06 4.65289e-21 0.000137295 2.23339e-19 0)
(-0.000318902 -3.48925e-06 0 0.000136672 3.72231e-20 0)
(-0.000317449 -3.48925e-06 -2.79173e-20 0.000136049 3.72231e-20 0)
(-0.000315996 -3.48925e-06 9.30578e-21 0.000135427 7.44463e-20 0)
(-0.000314543 -3.48925e-06 0 0.000134804 -3.72231e-20 0)
(-0.00031309 -3.48925e-06 0 0.000134182 -3.72231e-20 0)
(-0.000311638 -3.48925e-06 9.30578e-21 0.000133559 1.48893e-19 0)
(-0.000310185 -3.48925e-06 9.30578e-21 0.000132936 1.48893e-19 0)
(-0.000308732 -3.48925e-06 0 0.000132314 -7.44463e-20 0)
(-0.000307279 -3.48925e-06 1.39587e-20 0.000131691 0 0)
(-0.000305827 -3.48925e-06 -4.65289e-21 0.000131069 -3.72231e-20 0)
(-0.000304374 -3.48925e-06 -1.39587e-20 0.000130446 0 0)
(-0.000302921 -3.48925e-06 4.65289e-21 0.000129823 -3.72231e-20 0)
(-0.000301468 -3.48925e-06 4.65289e-21 0.000129201 1.11669e-19 0)
(-0.000300016 -3.48925e-06 -4.65289e-21 0.000128578 0 0)
(-0.000298563 -3.48925e-06 9.30578e-21 0.000127955 7.44463e-20 0)
(-0.00029711 -3.48925e-06 4.65289e-21 0.000127333 -1.11669e-19 0)
(-0.000295657 -3.48925e-06 -1.39587e-20 0.00012671 7.44463e-20 0)
(-0.000294204 -3.48925e-06 1.39587e-20 0.000126088 -3.72231e-20 0)
(-0.000292752 -3.48925e-06 0 0.000125465 -1.11669e-19 0)
(-0.000291299 -3.48925e-06 9.30578e-21 0.000124842 7.44463e-20 0)
(-0.000289846 -3.48925e-06 -1.39587e-20 0.00012422 -1.48893e-19 0)
(-0.000288393 -3.48925e-06 -3.72231e-20 0.000123597 3.72231e-20 0)
(-0.000286941 -3.48925e-06 4.65289e-21 0.000122975 1.11669e-19 0)
(-0.000285488 -3.48925e-06 0 0.000122352 -7.44463e-20 0)
(-0.000284035 -3.48925e-06 0 0.000121729 -1.11669e-19 0)
(-0.000282582 -3.48925e-06 4.65289e-21 0.000121107 -1.48893e-19 0)
(-0.000281129 -3.48925e-06 0 0.000120484 -3.72231e-20 0)
(-0.000279677 -3.48925e-06 0 0.000119861 2.97785e-19 0)
(-0.000278224 -3.48925e-06 0 0.000119239 1.48893e-19 0)
(-0.000276771 -3.48925e-06 4.65289e-21 0.000118616 2.60562e-19 0)
(-0.000275318 -3.48925e-06 9.30578e-21 0.000117994 -7.44463e-20 0)
(-0.000273866 -3.48925e-06 9.30578e-21 0.000117371 7.44463e-20 0)
(-0.000272413 -3.48925e-06 0 0.000116748 -1.48893e-19 0)
(-0.00027096 -3.48925e-06 1.39587e-20 0.000116126 -7.44463e-20 0)
(-0.000269507 -3.48925e-06 4.65289e-21 0.000115503 -7.44463e-20 0)
(-0.000268055 -3.48925e-06 9.30578e-21 0.000114881 -7.44463e-20 0)
(-0.000266602 -3.48925e-06 0 0.000114258 -7.44463e-20 0)
(-0.000265149 -3.48925e-06 1.39587e-20 0.000113635 1.48893e-19 0)
(-0.000263696 -3.48925e-06 -4.65289e-21 0.000113013 -7.44463e-20 0)
(-0.000262243 -3.48925e-06 9.30578e-21 0.00011239 4.46678e-19 0)
(-0.000260791 -3.48925e-06 -1.86116e-20 0.000111767 -2.97785e-19 0)
(-0.000259338 -3.48925e-06 4.65289e-21 0.000111145 2.23339e-19 0)
(-0.000257885 -3.48925e-06 -9.30578e-21 0.000110522 1.48893e-19 0)
(-0.000256432 -3.48925e-06 0 0.0001099 0 0)
(-0.00025498 -3.48925e-06 4.65289e-21 0.000109277 -7.44463e-20 0)
(-0.000253527 -3.48925e-06 9.30578e-21 0.000108654 0 0)
(-0.000252074 -3.48925e-06 9.30578e-21 0.000108032 7.44463e-20 0)
(-0.000250621 -3.48925e-06 -9.30578e-21 0.000107409 0 0)
(-0.000249169 -3.48925e-06 -4.65289e-21 0.000106787 0 0)
(-0.000247716 -3.48925e-06 1.86116e-20 0.000106164 -3.72231e-19 0)
(-0.000246263 -3.48925e-06 -1.86116e-20 0.000105541 -1.48893e-19 0)
(-0.00024481 -3.48925e-06 1.39587e-20 0.000104919 7.44463e-20 0)
(-0.000243357 -3.48925e-06 4.65289e-21 0.000104296 -7.44463e-20 0)
(-0.000241905 -3.48925e-06 -1.39587e-20 0.000103673 -2.97785e-19 0)
(-0.000240452 -3.48925e-06 -4.65289e-21 0.000103051 0 0)
(-0.000238999 -3.48925e-06 0 0.000102428 0 0)
(-0.000237546 -3.48925e-06 0 0.000101806 -2.23339e-19 0)
(-0.000236094 -3.48925e-06 2.32645e-20 0.000101183 7.44463e-20 0)
(-0.000234641 -3.48925e-06 -9.30578e-21 0.00010056 0 0)
(-0.000233188 -3.48925e-06 -4.65289e-21 9.99377e-05 7.44463e-20 0)
(-0.000231735 -3.48925e-06 0 9.93151e-05 7.44463e-20 0)
(-0.000230282 -3.48925e-06 4.65289e-21 9.86925e-05 -1.48893e-19 0)
(-0.00022883 -3.48925e-06 -4.65289e-21 9.80699e-05 7.44463e-20 0)
(-0.000227377 -3.48925e-06 0 9.74473e-05 -2.23339e-19 0)
(-0.000225924 -3.48925e-06 0 9.68246e-05 0 0)
(-0.000224471 -3.48925e-06 0 9.6202e-05 7.44463e-20 0)
(-0.000223019 -3.48925e-06 0 9.55794e-05 0 0)
(-0.000221566 -3.48925e-06 0 9.49568e-05 -3.72231e-19 0)
(-0.000220113 -3.48925e-06 9.30578e-21 9.43342e-05 -1.48893e-19 0)
(-0.00021866 -3.48925e-06 9.30578e-21 9.37116e-05 -3.72231e-19 0)
(-0.000217208 -3.48925e-06 -2.79173e-20 9.30889e-05 7.44463e-20 0)
(-0.000215755 -3.48925e-06 -9.30578e-21 9.24663e-05 1.48893e-19 0)
(-0.000214302 -3.48925e-06 9.30578e-21 9.18437e-05 -2.23339e-19 0)
(-0.000212849 -3.48925e-06 0 9.12211e-05 2.23339e-19 0)
(-0.000211396 -3.48925e-06 0 9.05985e-05 -7.44463e-20 0)
(-0.000209944 -3.48925e-06 0 8.99759e-05 -7.44463e-20 0)
(-0.000208491 -3.48925e-06 -9.30578e-21 8.93532e-05 0 0)
(-0.000207038 -3.48925e-06 0 8.87306e-05 -2.23339e-19 0)
(-0.000205585 -3.48925e-06 0 8.8108e-05 7.44463e-20 0)
(-0.000204133 -3.48925e-06 9.30578e-21 8.74854e-05 7.44463e-20 0)
(-0.00020268 -3.48925e-06 -2.79173e-20 8.68628e-05 0 0)
(-0.000201227 -3.48925e-06 9.30578e-21 8.62402e-05 -2.97785e-19 0)