/*--------------------------------*- C++ -*----------------------------------*\
| =========                 |                                                 |
| \\      /  F ield         | foam-extend: Open Source CFD                    |
|  \\    /   O peration     | Version:     4.0                                |
|   \\  /    A nd           | Web:         http://www.foam-extend.org         |
|    \\/     M anipulation  |                                                 |
\*---------------------------------------------------------------------------*/
FoamFile
{
    version     2.0;
    format      ascii;
    class       volScalarField;
    location    "1";
    object      epsilonEq;
}
// * * * * * * * * * * * * * * * * * * * * * * * * * * * * * * * * * * * * * //

dimensions      [0 0 0 0 0 0 0];

internalField   nonuniform List<scalar> 
4500
(
0.000370058
0.00038693
0.000403056
0.000410427
0.000414189
0.000416112
0.000416939
0.000417024
0.000416593
0.000415807
0.000414781
0.000413597
0.000412314
0.000410967
0.000409582
0.000408175
0.000406755
0.000405327
0.000403896
0.000402462
0.000401027
0.000399593
0.000398158
0.000396723
0.000395288
0.000393853
0.000392418
0.000390983
0.000389548
0.000388114
0.000386679
0.000385244
0.000383809
0.000382375
0.00038094
0.000379505
0.00037807
0.000376636
0.000375201
0.000373766
0.000372332
0.000370897
0.000369462
0.000368027
0.000366593
0.000365158
0.000363723
0.000362289
0.000360854
0.000359419
0.000357984
0.00035655
0.000355115
0.00035368
0.000352246
0.000350811
0.000349376
0.000347941
0.000346507
0.000345072
0.000343637
0.000342203
0.000340768
0.000339333
0.000337899
0.000336464
0.000335029
0.000333594
0.00033216
0.000330725
0.00032929
0.000327856
0.000326421
0.000324986
0.000323551
0.000322117
0.000320682
0.000319247
0.000317813
0.000316378
0.000314943
0.000313508
0.000312074
0.000310639
0.000309204
0.00030777
0.000306335
0.0003049
0.000303465
0.000302031
0.000300596
0.000299161
0.000297727
0.000296292
0.000294857
0.000293423
0.000291988
0.000290553
0.000289118
0.000287684
0.000286249
0.000284814
0.00028338
0.000281945
0.00028051
0.000279075
0.000277641
0.000276206
0.000274771
0.000273337
0.000271902
0.000270467
0.000269033
0.000267598
0.000266163
0.000264728
0.000263294
0.000261859
0.000260424
0.00025899
0.000257555
0.00025612
0.000254686
0.000253251
0.000251816
0.000250381
0.000248947
0.000247512
0.000246077
0.000244643
0.000243208
0.000241773
0.000240339
0.000238904
0.000237469
0.000236034
0.0002346
0.000233165
0.00023173
0.000230296
0.000228861
0.000227426
0.000225992
0.000224557
0.000223122
0.000221687
0.000220253
0.000218818
0.000217383
0.000215949
0.000214514
0.000213079
0.000211645
0.00021021
0.000208775
0.000207341
0.000205906
0.000204471
0.000203036
0.000201602
0.000200167
0.000198732
0.000197298
0.000195863
0.000194428
0.000192994
0.000191559
0.000190124
0.00018869
0.000187255
0.00018582
0.000184386
0.000182951
0.000181516
0.000180082
0.000178647
0.000177212
0.000175777
0.000174343
0.000172908
0.000171473
0.000170039
0.000168604
0.000167169
0.000165735
0.0001643
0.000162865
0.000161431
0.000159996
0.000158561
0.000157127
0.000155692
0.000154257
0.000152823
0.000151388
0.000149953
0.000148519
0.000147084
0.000145649
0.000144215
0.00014278
0.000141346
0.000139911
0.000138476
0.000137042
0.000135607
0.000134172
0.000132738
0.000131303
0.000129868
0.000128434
0.000126999
0.000125564
0.00012413
0.000122695
0.000121261
0.000119826
0.000118391
0.000116957
0.000115522
0.000114088
0.000112653
0.000111218
0.000109784
0.000108349
0.000106914
0.00010548
0.000104045
0.000102611
0.000101176
9.97416e-05
9.8307e-05
9.68724e-05
9.54379e-05
9.40033e-05
9.25687e-05
9.11342e-05
8.96997e-05
8.82651e-05
8.68306e-05
8.53961e-05
8.39615e-05
8.2527e-05
8.10925e-05
7.9658e-05
7.82235e-05
7.67891e-05
7.53546e-05
7.39201e-05
7.24857e-05
7.10512e-05
6.96168e-05
6.81824e-05
6.6748e-05
6.53136e-05
6.38792e-05
6.24449e-05
6.10106e-05
5.95762e-05
5.81419e-05
5.67077e-05
5.52734e-05
5.38392e-05
5.2405e-05
5.09708e-05
4.95367e-05
4.81026e-05
4.66685e-05
4.52345e-05
4.38005e-05
4.23665e-05
4.09327e-05
3.94989e-05
3.80651e-05
3.66314e-05
3.51978e-05
3.37643e-05
3.23309e-05
3.08976e-05
2.94645e-05
2.80315e-05
2.65987e-05
2.51663e-05
2.37343e-05
2.2303e-05
2.08728e-05
1.94443e-05
1.80186e-05
1.65976e-05
1.51839e-05
1.37817e-05
1.23976e-05
1.10409e-05
9.72561e-06
8.47246e-06
7.3141e-06
6.30957e-06
5.57439e-06
5.37362e-06
6.3025e-06
0.000297349
0.000341821
0.000356592
0.000360665
0.000361358
0.000360967
0.000360189
0.00035924
0.000358194
0.000357085
0.000355934
0.000354754
0.000353555
0.000352343
0.000351124
0.000349901
0.000348674
0.000347446
0.000346217
0.000344988
0.000343758
0.000342528
0.000341299
0.000340069
0.000338839
0.00033761
0.00033638
0.00033515
0.000333921
0.000332691
0.000331461
0.000330231
0.000329002
0.000327772
0.000326542
0.000325313
0.000324083
0.000322853
0.000321624
0.000320394
0.000319164
0.000317935
0.000316705
0.000315475
0.000314246
0.000313016
0.000311786
0.000310557
0.000309327
0.000308097
0.000306868
0.000305638
0.000304409
0.000303179
0.000301949
0.00030072
0.00029949
0.00029826
0.000297031
0.000295801
0.000294571
0.000293342
0.000292112
0.000290882
0.000289653
0.000288423
0.000287193
0.000285964
0.000284734
0.000283505
0.000282275
0.000281045
0.000279816
0.000278586
0.000277356
0.000276127
0.000274897
0.000273667
0.000272438
0.000271208
0.000269979
0.000268749
0.000267519
0.00026629
0.00026506
0.00026383
0.000262601
0.000261371
0.000260142
0.000258912
0.000257682
0.000256453
0.000255223
0.000253994
0.000252764
0.000251534
0.000250305
0.000249075
0.000247845
0.000246616
0.000245386
0.000244157
0.000242927
0.000241697
0.000240468
0.000239238
0.000238009
0.000236779
0.00023555
0.00023432
0.00023309
0.000231861
0.000230631
0.000229402
0.000228172
0.000226943
0.000225713
0.000224483
0.000223254
0.000222024
0.000220795
0.000219565
0.000218336
0.000217106
0.000215876
0.000214647
0.000213417
0.000212188
0.000210958
0.000209729
0.000208499
0.00020727
0.00020604
0.000204811
0.000203581
0.000202352
0.000201122
0.000199893
0.000198663
0.000197434
0.000196204
0.000194975
0.000193745
0.000192516
0.000191286
0.000190057
0.000188827
0.000187598
0.000186368
0.000185139
0.000183909
0.00018268
0.00018145
0.000180221
0.000178991
0.000177762
0.000176532
0.000175303
0.000174074
0.000172844
0.000171615
0.000170385
0.000169156
0.000167926
0.000166697
0.000165468
0.000164238
0.000163009
0.000161779
0.00016055
0.000159321
0.000158091
0.000156862
0.000155633
0.000154403
0.000153174
0.000151945
0.000150715
0.000149486
0.000148257
0.000147027
0.000145798
0.000144569
0.000143339
0.00014211
0.000140881
0.000139652
0.000138422
0.000137193
0.000135964
0.000134735
0.000133506
0.000132276
0.000131047
0.000129818
0.000128589
0.00012736
0.000126131
0.000124901
0.000123672
0.000122443
0.000121214
0.000119985
0.000118756
0.000117527
0.000116298
0.000115069
0.00011384
0.000112611
0.000111382
0.000110153
0.000108924
0.000107695
0.000106466
0.000105237
0.000104008
0.00010278
0.000101551
0.000100322
9.90933e-05
9.78646e-05
9.66359e-05
9.54072e-05
9.41785e-05
9.29499e-05
9.17213e-05
9.04927e-05
8.92642e-05
8.80357e-05
8.68073e-05
8.55788e-05
8.43505e-05
8.31221e-05
8.18938e-05
8.06656e-05
7.94374e-05
7.82092e-05
7.69811e-05
7.57531e-05
7.45251e-05
7.32971e-05
7.20693e-05
7.08415e-05
6.96137e-05
6.83861e-05
6.71585e-05
6.5931e-05
6.47035e-05
6.34762e-05
6.2249e-05
6.10218e-05
5.97948e-05
5.85679e-05
5.73411e-05
5.61145e-05
5.48879e-05
5.36616e-05
5.24354e-05
5.12093e-05
4.99835e-05
4.87578e-05
4.75323e-05
4.63071e-05
4.50822e-05
4.38575e-05
4.2633e-05
4.14089e-05
4.01852e-05
3.89618e-05
3.77389e-05
3.65164e-05
3.52944e-05
3.40729e-05
3.28521e-05
3.1632e-05
3.04127e-05
2.91942e-05
2.79767e-05
2.67603e-05
2.55452e-05
2.43316e-05
2.31197e-05
2.19097e-05
2.07019e-05
1.94968e-05
1.82948e-05
1.70964e-05
1.59021e-05
1.47126e-05
1.35284e-05
1.23503e-05
1.11786e-05
1.00143e-05
8.85942e-06
7.72193e-06
6.62839e-06
5.66575e-06
5.09948e-06
5.65725e-06
8.5263e-06
0.000219961
0.000271471
0.000294401
0.000302657
0.000304654
0.000304204
0.000302911
0.00030141
0.000299934
0.00029855
0.000297263
0.000296056
0.00029491
0.000293806
0.000292732
0.000291677
0.000290634
0.000289599
0.000288568
0.00028754
0.000286514
0.000285489
0.000284464
0.000283439
0.000282414
0.00028139
0.000280365
0.000279341
0.000278316
0.000277292
0.000276267
0.000275243
0.000274218
0.000273194
0.000272169
0.000271145
0.00027012
0.000269096
0.000268071
0.000267047
0.000266022
0.000264998
0.000263973
0.000262948
0.000261924
0.000260899
0.000259875
0.00025885
0.000257826
0.000256801
0.000255777
0.000254752
0.000253728
0.000252703
0.000251679
0.000250654
0.00024963
0.000248605
0.000247581
0.000246557
0.000245532
0.000244508
0.000243483
0.000242459
0.000241434
0.00024041
0.000239385
0.000238361
0.000237336
0.000236312
0.000235287
0.000234263
0.000233239
0.000232214
0.00023119
0.000230165
0.000229141
0.000228116
0.000227092
0.000226068
0.000225043
0.000224019
0.000222994
0.00022197
0.000220946
0.000219921
0.000218897
0.000217872
0.000216848
0.000215824
0.000214799
0.000213775
0.000212751
0.000211726
0.000210702
0.000209677
0.000208653
0.000207629
0.000206604
0.00020558
0.000204556
0.000203531
0.000202507
0.000201483
0.000200458
0.000199434
0.00019841
0.000197386
0.000196361
0.000195337
0.000194313
0.000193288
0.000192264
0.00019124
0.000190216
0.000189191
0.000188167
0.000187143
0.000186119
0.000185094
0.00018407
0.000183046
0.000182022
0.000180998
0.000179973
0.000178949
0.000177925
0.000176901
0.000175877
0.000174853
0.000173828
0.000172804
0.00017178
0.000170756
0.000169732
0.000168708
0.000167684
0.00016666
0.000165636
0.000164611
0.000163587
0.000162563
0.000161539
0.000160515
0.000159491
0.000158467
0.000157443
0.000156419
0.000155395
0.000154371
0.000153347
0.000152323
0.000151299
0.000150275
0.000149252
0.000148228
0.000147204
0.00014618
0.000145156
0.000144132
0.000143108
0.000142084
0.000141061
0.000140037
0.000139013
0.000137989
0.000136966
0.000135942
0.000134918
0.000133894
0.000132871
0.000131847
0.000130823
0.0001298
0.000128776
0.000127753
0.000126729
0.000125705
0.000124682
0.000123658
0.000122635
0.000121611
0.000120588
0.000119565
0.000118541
0.000117518
0.000116494
0.000115471
0.000114448
0.000113425
0.000112401
0.000111378
0.000110355
0.000109332
0.000108309
0.000107286
0.000106262
0.000105239
0.000104216
0.000103193
0.000102171
0.000101148
0.000100125
9.91021e-05
9.80793e-05
9.70566e-05
9.60339e-05
9.50113e-05
9.39887e-05
9.29662e-05
9.19437e-05
9.09213e-05
8.98989e-05
8.88766e-05
8.78543e-05
8.68321e-05
8.581e-05
8.47879e-05
8.37659e-05
8.2744e-05
8.17221e-05
8.07004e-05
7.96787e-05
7.8657e-05
7.76355e-05
7.6614e-05
7.55927e-05
7.45714e-05
7.35502e-05
7.25291e-05
7.15082e-05
7.04873e-05
6.94666e-05
6.8446e-05
6.74255e-05
6.64051e-05
6.53849e-05
6.43648e-05
6.33449e-05
6.23251e-05
6.13055e-05
6.02861e-05
5.92669e-05
5.82479e-05
5.7229e-05
5.62104e-05
5.5192e-05
5.41739e-05
5.3156e-05
5.21384e-05
5.11211e-05
5.01041e-05
4.90874e-05
4.8071e-05
4.7055e-05
4.60394e-05
4.50243e-05
4.40095e-05
4.29953e-05
4.19815e-05
4.09684e-05
3.99558e-05
3.89438e-05
3.79325e-05
3.6922e-05
3.59123e-05
3.49035e-05
3.38956e-05
3.28888e-05
3.18831e-05
3.08786e-05
2.98756e-05
2.88741e-05
2.78743e-05
2.68763e-05
2.58805e-05
2.4887e-05
2.38962e-05
2.29083e-05
2.19238e-05
2.09431e-05
1.99666e-05
1.8995e-05
1.80288e-05
1.70687e-05
1.61152e-05
1.51689e-05
1.42302e-05
1.32993e-05
1.23759e-05
1.14597e-05
1.05508e-05
9.65197e-06
8.77292e-06
7.94141e-06
7.22399e-06
6.7578e-06
6.76623e-06
7.49708e-06
8.96654e-06
0.000166701
0.000206843
0.000230376
0.000241194
0.000244971
0.000245358
0.000244318
0.000242807
0.000241246
0.000239794
0.00023849
0.000237323
0.000236265
0.000235287
0.000234366
0.000233483
0.000232625
0.000231783
0.00023095
0.000230123
0.0002293
0.000228478
0.000227658
0.000226838
0.000226019
0.0002252
0.00022438
0.000223561
0.000222742
0.000221923
0.000221103
0.000220284
0.000219465
0.000218645
0.000217826
0.000217007
0.000216188
0.000215368
0.000214549
0.00021373
0.000212911
0.000212091
0.000211272
0.000210453
0.000209634
0.000208814
0.000207995
0.000207176
0.000206357
0.000205537
0.000204718
0.000203899
0.00020308
0.000202261
0.000201441
0.000200622
0.000199803
0.000198984
0.000198165
0.000197345
0.000196526
0.000195707
0.000194888
0.000194069
0.00019325
0.000192431
0.000191611
0.000190792
0.000189973
0.000189154
0.000188335
0.000187516
0.000186697
0.000185878
0.000185059
0.00018424
0.000183421
0.000182602
0.000181782
0.000180963
0.000180144
0.000179325
0.000178506
0.000177687
0.000176868
0.000176049
0.00017523
0.000174411
0.000173592
0.000172773
0.000171955
0.000171136
0.000170317
0.000169498
0.000168679
0.00016786
0.000167041
0.000166222
0.000165403
0.000164584
0.000163765
0.000162947
0.000162128
0.000161309
0.00016049
0.000159671
0.000158852
0.000158034
0.000157215
0.000156396
0.000155577
0.000154759
0.00015394
0.000153121
0.000152302
0.000151484
0.000150665
0.000149846
0.000149028
0.000148209
0.00014739
0.000146572
0.000145753
0.000144935
0.000144116
0.000143298
0.000142479
0.00014166
0.000140842
0.000140023
0.000139205
0.000138386
0.000137568
0.00013675
0.000135931
0.000135113
0.000134294
0.000133476
0.000132658
0.000131839
0.000131021
0.000130203
0.000129384
0.000128566
0.000127748
0.00012693
0.000126112
0.000125293
0.000124475
0.000123657
0.000122839
0.000122021
0.000121203
0.000120385
0.000119567
0.000118749
0.000117931
0.000117113
0.000116295
0.000115477
0.000114659
0.000113841
0.000113024
0.000112206
0.000111388
0.000110571
0.000109753
0.000108935
0.000108118
0.0001073
0.000106483
0.000105665
0.000104848
0.00010403
0.000103213
0.000102395
0.000101578
0.000100761
9.99437e-05
9.91265e-05
9.83094e-05
9.74923e-05
9.66752e-05
9.58582e-05
9.50413e-05
9.42244e-05
9.34076e-05
9.25908e-05
9.17741e-05
9.09574e-05
9.01408e-05
8.93242e-05
8.85077e-05
8.76913e-05
8.68749e-05
8.60586e-05
8.52424e-05
8.44262e-05
8.36101e-05
8.27941e-05
8.19781e-05
8.11623e-05
8.03465e-05
7.95308e-05
7.87152e-05
7.78996e-05
7.70842e-05
7.62688e-05
7.54536e-05
7.46385e-05
7.38234e-05
7.30085e-05
7.21937e-05
7.1379e-05
7.05644e-05
6.97499e-05
6.89356e-05
6.81214e-05
6.73073e-05
6.64934e-05
6.56796e-05
6.4866e-05
6.40525e-05
6.32392e-05
6.24261e-05
6.16131e-05
6.08004e-05
5.99878e-05
5.91754e-05
5.83632e-05
5.75513e-05
5.67396e-05
5.59281e-05
5.51168e-05
5.43059e-05
5.34952e-05
5.26847e-05
5.18746e-05
5.10648e-05
5.02553e-05
4.94461e-05
4.86373e-05
4.78289e-05
4.70209e-05
4.62133e-05
4.54061e-05
4.45994e-05
4.37932e-05
4.29875e-05
4.21823e-05
4.13777e-05
4.05738e-05
3.97705e-05
3.89678e-05
3.81659e-05
3.73648e-05
3.65645e-05
3.57651e-05
3.49666e-05
3.41692e-05
3.33728e-05
3.25776e-05
3.17836e-05
3.0991e-05
3.01999e-05
2.94103e-05
2.86225e-05
2.78364e-05
2.70524e-05
2.62706e-05
2.54911e-05
2.47143e-05
2.39404e-05
2.31696e-05
2.24023e-05
2.16388e-05
2.08796e-05
2.01252e-05
1.9376e-05
1.86327e-05
1.7896e-05
1.71665e-05
1.64452e-05
1.57329e-05
1.50304e-05
1.43386e-05
1.36582e-05
1.299e-05
1.23345e-05
1.16923e-05
1.10649e-05
1.04556e-05
9.87275e-06
9.33384e-06
8.87226e-06
8.54184e-06
8.40856e-06
8.51205e-06
8.80171e-06
9.10521e-06
0.00012475
0.000149988
0.000169089
0.000179551
0.000184006
0.000185079
0.000184516
0.000183304
0.000181938
0.000180638
0.000179474
0.000178454
0.000177554
0.000176747
0.000176007
0.000175313
0.000174649
0.000174005
0.000173373
0.00017275
0.00017213
0.000171513
0.000170898
0.000170283
0.000169669
0.000169055
0.000168441
0.000167827
0.000167214
0.0001666
0.000165986
0.000165372
0.000164758
0.000164144
0.00016353
0.000162917
0.000162303
0.000161689
0.000161075
0.000160461
0.000159847
0.000159234
0.00015862
0.000158006
0.000157392
0.000156778
0.000156165
0.000155551
0.000154937
0.000154323
0.00015371
0.000153096
0.000152482
0.000151869
0.000151255
0.000150641
0.000150027
0.000149414
0.0001488
0.000148187
0.000147573
0.000146959
0.000146346
0.000145732
0.000145118
0.000144505
0.000143891
0.000143278
0.000142664
0.000142051
0.000141437
0.000140824
0.00014021
0.000139597
0.000138983
0.00013837
0.000137756
0.000137143
0.000136529
0.000135916
0.000135303
0.000134689
0.000134076
0.000133463
0.000132849
0.000132236
0.000131623
0.000131009
0.000130396
0.000129783
0.000129169
0.000128556
0.000127943
0.00012733
0.000126717
0.000126103
0.00012549
0.000124877
0.000124264
0.000123651
0.000123038
0.000122425
0.000121812
0.000121199
0.000120586
0.000119973
0.00011936
0.000118747
0.000118134
0.000117521
0.000116908
0.000116295
0.000115682
0.000115069
0.000114457
0.000113844
0.000113231
0.000112618
0.000112006
0.000111393
0.00011078
0.000110168
0.000109555
0.000108942
0.00010833
0.000107717
0.000107105
0.000106492
0.00010588
0.000105267
0.000104655
0.000104043
0.00010343
0.000102818
0.000102206
0.000101594
0.000100981
0.000100369
9.9757e-05
9.91448e-05
9.85328e-05
9.79207e-05
9.73087e-05
9.66967e-05
9.60848e-05
9.54729e-05
9.4861e-05
9.42492e-05
9.36374e-05
9.30257e-05
9.2414e-05
9.18023e-05
9.11907e-05
9.05791e-05
8.99676e-05
8.93561e-05
8.87447e-05
8.81333e-05
8.7522e-05
8.69107e-05
8.62995e-05
8.56883e-05
8.50772e-05
8.44661e-05
8.38551e-05
8.32441e-05
8.26332e-05
8.20224e-05
8.14116e-05
8.08009e-05
8.01902e-05
7.95796e-05
7.89691e-05
7.83586e-05
7.77483e-05
7.71379e-05
7.65277e-05
7.59175e-05
7.53074e-05
7.46974e-05
7.40875e-05
7.34777e-05
7.28679e-05
7.22582e-05
7.16486e-05
7.10391e-05
7.04297e-05
6.98204e-05
6.92112e-05
6.86021e-05
6.79931e-05
6.73842e-05
6.67754e-05
6.61667e-05
6.55582e-05
6.49497e-05
6.43414e-05
6.37332e-05
6.31252e-05
6.25172e-05
6.19094e-05
6.13018e-05
6.06943e-05
6.00869e-05
5.94797e-05
5.88727e-05
5.82658e-05
5.76591e-05
5.70526e-05
5.64462e-05
5.58401e-05
5.52341e-05
5.46283e-05
5.40228e-05
5.34174e-05
5.28123e-05
5.22074e-05
5.16027e-05
5.09983e-05
5.03941e-05
4.97902e-05
4.91866e-05
4.85832e-05
4.79802e-05
4.73774e-05
4.6775e-05
4.61728e-05
4.55711e-05
4.49697e-05
4.43686e-05
4.37679e-05
4.31677e-05
4.25678e-05
4.19684e-05
4.13695e-05
4.0771e-05
4.0173e-05
3.95755e-05
3.89786e-05
3.83822e-05
3.77864e-05
3.71913e-05
3.65968e-05
3.6003e-05
3.54099e-05
3.48176e-05
3.4226e-05
3.36353e-05
3.30455e-05
3.24566e-05
3.18687e-05
3.12818e-05
3.06961e-05
3.01114e-05
2.95281e-05
2.8946e-05
2.83653e-05
2.77861e-05
2.72084e-05
2.66324e-05
2.60582e-05
2.54859e-05
2.49156e-05
2.43474e-05
2.37817e-05
2.32184e-05
2.26577e-05
2.21e-05
2.15454e-05
2.09941e-05
2.04465e-05
1.99028e-05
1.93634e-05
1.88285e-05
1.82988e-05
1.77745e-05
1.72561e-05
1.67443e-05
1.62396e-05
1.57427e-05
1.52542e-05
1.47751e-05
1.43059e-05
1.38477e-05
1.34012e-05
1.29674e-05
1.25471e-05
1.21414e-05
1.17514e-05
1.1379e-05
1.10273e-05
1.07014e-05
1.04103e-05
1.01674e-05
9.98986e-06
9.89095e-06
9.85976e-06
9.82583e-06
9.62672e-06
9.04102e-06
9.00594e-05
9.86962e-05
0.000110881
0.000118979
0.000122928
0.000124172
0.000123974
0.000123144
0.000122127
0.000121133
0.000120243
0.00011947
0.000118802
0.000118215
0.000117689
0.000117206
0.00011675
0.000116313
0.000115888
0.00011547
0.000115056
0.000114645
0.000114235
0.000113826
0.000113418
0.00011301
0.000112601
0.000112193
0.000111785
0.000111377
0.000110969
0.000110561
0.000110153
0.000109745
0.000109337
0.000108929
0.000108521
0.000108113
0.000107705
0.000107297
0.000106889
0.000106481
0.000106073
0.000105665
0.000105257
0.000104849
0.000104441
0.000104033
0.000103625
0.000103218
0.00010281
0.000102402
0.000101994
0.000101586
0.000101179
0.000100771
0.000100363
9.99556e-05
9.95479e-05
9.91402e-05
9.87326e-05
9.8325e-05
9.79174e-05
9.75098e-05
9.71022e-05
9.66947e-05
9.62872e-05
9.58796e-05
9.54722e-05
9.50647e-05
9.46573e-05
9.42498e-05
9.38424e-05
9.34351e-05
9.30277e-05
9.26204e-05
9.22131e-05
9.18058e-05
9.13985e-05
9.09913e-05
9.05841e-05
9.01769e-05
8.97697e-05
8.93626e-05
8.89555e-05
8.85484e-05
8.81413e-05
8.77343e-05
8.73273e-05
8.69203e-05
8.65134e-05
8.61064e-05
8.56995e-05
8.52927e-05
8.48858e-05
8.4479e-05
8.40723e-05
8.36655e-05
8.32588e-05
8.28521e-05
8.24455e-05
8.20389e-05
8.16323e-05
8.12257e-05
8.08192e-05
8.04127e-05
8.00063e-05
7.95999e-05
7.91935e-05
7.87871e-05
7.83808e-05
7.79746e-05
7.75684e-05
7.71622e-05
7.6756e-05
7.63499e-05
7.59438e-05
7.55378e-05
7.51318e-05
7.47259e-05
7.432e-05
7.39142e-05
7.35084e-05
7.31026e-05
7.26969e-05
7.22912e-05
7.18856e-05
7.148e-05
7.10745e-05
7.0669e-05
7.02636e-05
6.98583e-05
6.9453e-05
6.90477e-05
6.86425e-05
6.82374e-05
6.78323e-05
6.74273e-05
6.70223e-05
6.66174e-05
6.62125e-05
6.58078e-05
6.5403e-05
6.49984e-05
6.45938e-05
6.41893e-05
6.37848e-05
6.33804e-05
6.29761e-05
6.25719e-05
6.21677e-05
6.17637e-05
6.13597e-05
6.09557e-05
6.05519e-05
6.01481e-05
5.97444e-05
5.93408e-05
5.89373e-05
5.85339e-05
5.81306e-05
5.77273e-05
5.73242e-05
5.69212e-05
5.65182e-05
5.61154e-05
5.57126e-05
5.531e-05
5.49075e-05
5.45051e-05
5.41027e-05
5.37006e-05
5.32985e-05
5.28965e-05
5.24947e-05
5.2093e-05
5.16914e-05
5.129e-05
5.08887e-05
5.04875e-05
5.00865e-05
4.96856e-05
4.92849e-05
4.88843e-05
4.84839e-05
4.80836e-05
4.76835e-05
4.72836e-05
4.68838e-05
4.64843e-05
4.60849e-05
4.56856e-05
4.52866e-05
4.48878e-05
4.44892e-05
4.40908e-05
4.36926e-05
4.32946e-05
4.28968e-05
4.24993e-05
4.2102e-05
4.17049e-05
4.13082e-05
4.09116e-05
4.05154e-05
4.01194e-05
3.97236e-05
3.93282e-05
3.89331e-05
3.85383e-05
3.81438e-05
3.77496e-05
3.73558e-05
3.69623e-05
3.65692e-05
3.61765e-05
3.57841e-05
3.53922e-05
3.50006e-05
3.46095e-05
3.42188e-05
3.38286e-05
3.34388e-05
3.30496e-05
3.26608e-05
3.22726e-05
3.18849e-05
3.14978e-05
3.11112e-05
3.07253e-05
3.034e-05
2.99553e-05
2.95713e-05
2.9188e-05
2.88055e-05
2.84237e-05
2.80427e-05
2.76626e-05
2.72833e-05
2.69049e-05
2.65274e-05
2.6151e-05
2.57755e-05
2.54011e-05
2.50278e-05
2.46557e-05
2.42848e-05
2.39152e-05
2.35469e-05
2.318e-05
2.28146e-05
2.24507e-05
2.20884e-05
2.17278e-05
2.1369e-05
2.10121e-05
2.06571e-05
2.03042e-05
1.99535e-05
1.9605e-05
1.9259e-05
1.89156e-05
1.85748e-05
1.82369e-05
1.7902e-05
1.75703e-05
1.7242e-05
1.69172e-05
1.65962e-05
1.62791e-05
1.59664e-05
1.5658e-05
1.53545e-05
1.5056e-05
1.47628e-05
1.44753e-05
1.41938e-05
1.39187e-05
1.36503e-05
1.33891e-05
1.31355e-05
1.28899e-05
1.26528e-05
1.24248e-05
1.22064e-05
1.19984e-05
1.18018e-05
1.16177e-05
1.14482e-05
1.12957e-05
1.11642e-05
1.10584e-05
1.09842e-05
1.0946e-05
1.09415e-05
1.095e-05
1.09127e-05
1.07055e-05
1.01213e-05
8.90372e-06
6.34088e-05
5.17945e-05
5.48923e-05
5.97119e-05
6.25509e-05
6.35716e-05
6.35343e-05
6.30219e-05
6.23684e-05
6.17328e-05
6.11744e-05
6.07035e-05
6.03097e-05
5.99766e-05
5.9688e-05
5.94305e-05
5.9194e-05
5.89712e-05
5.87571e-05
5.85484e-05
5.8343e-05
5.81396e-05
5.79372e-05
5.77355e-05
5.75341e-05
5.73329e-05
5.71317e-05
5.69307e-05
5.67296e-05
5.65286e-05
5.63276e-05
5.61267e-05
5.59257e-05
5.57248e-05
5.55239e-05
5.5323e-05
5.51222e-05
5.49214e-05
5.47206e-05
5.45199e-05
5.43191e-05
5.41185e-05
5.39178e-05
5.37172e-05
5.35166e-05
5.33161e-05
5.31155e-05
5.29151e-05
5.27146e-05
5.25142e-05
5.23138e-05
5.21135e-05
5.19132e-05
5.17129e-05
5.15126e-05
5.13124e-05
5.11123e-05
5.09122e-05
5.07121e-05
5.0512e-05
5.0312e-05
5.01121e-05
4.99121e-05
4.97123e-05
4.95124e-05
4.93126e-05
4.91129e-05
4.89131e-05
4.87135e-05
4.85139e-05
4.83143e-05
4.81147e-05
4.79152e-05
4.77158e-05
4.75164e-05
4.73171e-05
4.71178e-05
4.69185e-05
4.67193e-05
4.65201e-05
4.6321e-05
4.6122e-05
4.5923e-05
4.5724e-05
4.55251e-05
4.53263e-05
4.51275e-05
4.49288e-05
4.47301e-05
4.45315e-05
4.43329e-05
4.41344e-05
4.3936e-05
4.37376e-05
4.35393e-05
4.3341e-05
4.31429e-05
4.29447e-05
4.27467e-05
4.25487e-05
4.23507e-05
4.21529e-05
4.19551e-05
4.17573e-05
4.15597e-05
4.13621e-05
4.11646e-05
4.09671e-05
4.07697e-05
4.05724e-05
4.03752e-05
4.01781e-05
3.9981e-05
3.9784e-05
3.95871e-05
3.93903e-05
3.91936e-05
3.89969e-05
3.88004e-05
3.86039e-05
3.84075e-05
3.82112e-05
3.8015e-05
3.78189e-05
3.76228e-05
3.74269e-05
3.72311e-05
3.70354e-05
3.68397e-05
3.66442e-05
3.64488e-05
3.62535e-05
3.60583e-05
3.58632e-05
3.56682e-05
3.54733e-05
3.52785e-05
3.50839e-05
3.48893e-05
3.46949e-05
3.45006e-05
3.43065e-05
3.41124e-05
3.39185e-05
3.37248e-05
3.35311e-05
3.33376e-05
3.31442e-05
3.2951e-05
3.27579e-05
3.2565e-05
3.23722e-05
3.21795e-05
3.1987e-05
3.17947e-05
3.16025e-05
3.14105e-05
3.12186e-05
3.1027e-05
3.08354e-05
3.06441e-05
3.04529e-05
3.02619e-05
3.00712e-05
2.98805e-05
2.96901e-05
2.94999e-05
2.93099e-05
2.912e-05
2.89304e-05
2.8741e-05
2.85518e-05
2.83629e-05
2.81741e-05
2.79856e-05
2.77973e-05
2.76092e-05
2.74214e-05
2.72339e-05
2.70466e-05
2.68595e-05
2.66727e-05
2.64862e-05
2.63e-05
2.6114e-05
2.59283e-05
2.57429e-05
2.55579e-05
2.53731e-05
2.51886e-05
2.50045e-05
2.48206e-05
2.46371e-05
2.4454e-05
2.42712e-05
2.40888e-05
2.39067e-05
2.3725e-05
2.35437e-05
2.33627e-05
2.31822e-05
2.30021e-05
2.28224e-05
2.26431e-05
2.24643e-05
2.22859e-05
2.2108e-05
2.19305e-05
2.17535e-05
2.15771e-05
2.14011e-05
2.12256e-05
2.10507e-05
2.08764e-05
2.07026e-05
2.05293e-05
2.03567e-05
2.01847e-05
2.00133e-05
1.98425e-05
1.96724e-05
1.95029e-05
1.93341e-05
1.91661e-05
1.89987e-05
1.88321e-05
1.86663e-05
1.85013e-05
1.8337e-05
1.81736e-05
1.8011e-05
1.78494e-05
1.76886e-05
1.75287e-05
1.73698e-05
1.72118e-05
1.70549e-05
1.68989e-05
1.67441e-05
1.65903e-05
1.64376e-05
1.62861e-05
1.61358e-05
1.59867e-05
1.58388e-05
1.56922e-05
1.55469e-05
1.5403e-05
1.52605e-05
1.51194e-05
1.49798e-05
1.48418e-05
1.47052e-05
1.45703e-05
1.4437e-05
1.43055e-05
1.41756e-05
1.40476e-05
1.39214e-05
1.37971e-05
1.36747e-05
1.35543e-05
1.3436e-05
1.33198e-05
1.32057e-05
1.30938e-05
1.29843e-05
1.2877e-05
1.27721e-05
1.26697e-05
1.25698e-05
1.24725e-05
1.23778e-05
1.22857e-05
1.21965e-05
1.211e-05
1.20264e-05
1.19458e-05
1.18681e-05
1.17936e-05
1.17223e-05
1.16544e-05
1.15901e-05
1.15298e-05
1.14739e-05
1.14234e-05
1.13793e-05
1.13435e-05
1.13185e-05
1.13075e-05
1.13147e-05
1.13442e-05
1.13985e-05
1.14748e-05
1.15578e-05
1.16071e-05
1.15394e-05
1.1207e-05
1.03836e-05
8.78108e-06
5.20679e-05
2.04857e-05
1.2244e-06
9.18618e-06
1.39576e-05
1.55247e-05
1.54939e-05
1.48108e-05
1.39727e-05
1.32065e-05
1.25909e-05
1.21328e-05
1.18092e-05
1.15898e-05
1.14457e-05
1.13539e-05
1.12969e-05
1.12625e-05
1.12422e-05
1.12306e-05
1.12242e-05
1.12209e-05
1.12192e-05
1.12184e-05
1.12181e-05
1.12181e-05
1.12181e-05
1.12181e-05
1.12182e-05
1.12183e-05
1.12183e-05
1.12183e-05
1.12184e-05
1.12184e-05
1.12184e-05
1.12184e-05
1.12184e-05
1.12184e-05
1.12184e-05
1.12184e-05
1.12184e-05
1.12184e-05
1.12184e-05
1.12184e-05
1.12184e-05
1.12184e-05
1.12184e-05
1.12184e-05
1.12184e-05
1.12184e-05
1.12184e-05
1.12184e-05
1.12184e-05
1.12184e-05
1.12184e-05
1.12184e-05
1.12184e-05
1.12184e-05
1.12184e-05
1.12184e-05
1.12184e-05
1.12184e-05
1.12184e-05
1.12184e-05
1.12184e-05
1.12184e-05
1.12184e-05
1.12184e-05
1.12184e-05
1.12184e-05
1.12184e-05
1.12184e-05
1.12184e-05
1.12184e-05
1.12184e-05
1.12184e-05
1.12184e-05
1.12184e-05
1.12184e-05
1.12184e-05
1.12184e-05
1.12184e-05
1.12184e-05
1.12184e-05
1.12184e-05
1.12184e-05
1.12184e-05
1.12184e-05
1.12184e-05
1.12184e-05
1.12184e-05
1.12184e-05
1.12184e-05
1.12184e-05
1.12184e-05
1.12184e-05
1.12184e-05
1.12184e-05
1.12184e-05
1.12184e-05
1.12184e-05
1.12184e-05
1.12184e-05
1.12184e-05
1.12184e-05
1.12184e-05
1.12184e-05
1.12184e-05
1.12184e-05
1.12184e-05
1.12184e-05
1.12184e-05
1.12184e-05
1.12184e-05
1.12184e-05
1.12184e-05
1.12184e-05
1.12184e-05
1.12184e-05
1.12184e-05
1.12184e-05
1.12184e-05
1.12184e-05
1.12184e-05
1.12184e-05
1.12184e-05
1.12184e-05
1.12184e-05
1.12184e-05
1.12184e-05
1.12184e-05
1.12184e-05
1.12184e-05
1.12184e-05
1.12184e-05
1.12184e-05
1.12184e-05
1.12184e-05
1.12184e-05
1.12184e-05
1.12184e-05
1.12184e-05
1.12184e-05
1.12184e-05
1.12184e-05
1.12184e-05
1.12184e-05
1.12184e-05
1.12184e-05
1.12184e-05
1.12184e-05
1.12184e-05
1.12184e-05
1.12184e-05
1.12184e-05
1.12184e-05
1.12184e-05
1.12184e-05
1.12184e-05
1.12184e-05
1.12184e-05
1.12184e-05
1.12184e-05
1.12184e-05
1.12184e-05
1.12184e-05
1.12184e-05
1.12184e-05
1.12184e-05
1.12184e-05
1.12184e-05
1.12184e-05
1.12184e-05
1.12184e-05
1.12184e-05
1.12184e-05
1.12184e-05
1.12184e-05
1.12184e-05
1.12184e-05
1.12184e-05
1.12184e-05
1.12184e-05
1.12184e-05
1.12184e-05
1.12184e-05
1.12184e-05
1.12184e-05
1.12184e-05
1.12184e-05
1.12184e-05
1.12184e-05
1.12184e-05
1.12184e-05
1.12184e-05
1.12184e-05
1.12184e-05
1.12184e-05
1.12184e-05
1.12184e-05
1.12184e-05
1.12184e-05
1.12184e-05
1.12184e-05
1.12184e-05
1.12184e-05
1.12184e-05
1.12184e-05
1.12184e-05
1.12184e-05
1.12184e-05
1.12184e-05
1.12184e-05
1.12184e-05
1.12184e-05
1.12184e-05
1.12184e-05
1.12184e-05
1.12184e-05
1.12184e-05
1.12184e-05
1.12184e-05
1.12184e-05
1.12184e-05
1.12184e-05
1.12184e-05
1.12184e-05
1.12184e-05
1.12184e-05
1.12184e-05
1.12184e-05
1.12184e-05
1.12184e-05
1.12184e-05
1.12184e-05
1.12184e-05
1.12184e-05
1.12184e-05
1.12184e-05
1.12184e-05
1.12184e-05
1.12184e-05
1.12184e-05
1.12184e-05
1.12184e-05
1.12184e-05
1.12184e-05
1.12184e-05
1.12184e-05
1.12184e-05
1.12184e-05
1.12184e-05
1.12184e-05
1.12184e-05
1.12184e-05
1.12184e-05
1.12184e-05
1.12184e-05
1.12184e-05
1.12184e-05
1.12184e-05
1.12184e-05
1.12184e-05
1.12184e-05
1.12184e-05
1.12184e-05
1.12184e-05
1.12184e-05
1.12184e-05
1.12184e-05
1.12184e-05
1.12184e-05
1.12184e-05
1.12184e-05
1.12184e-05
1.12183e-05
1.12183e-05
1.12184e-05
1.12184e-05
1.12186e-05
1.12189e-05
1.12196e-05
1.12208e-05
1.1223e-05
1.12267e-05
1.1233e-05
1.12432e-05
1.12595e-05
1.12846e-05
1.13221e-05
1.13764e-05
1.1451e-05
1.15474e-05
1.16601e-05
1.17693e-05
1.18284e-05
1.17467e-05
1.13697e-05
1.04657e-05
8.7331e-06
6.34088e-05
5.17945e-05
5.48923e-05
5.97119e-05
6.25509e-05
6.35716e-05
6.35343e-05
6.30219e-05
6.23684e-05
6.17328e-05
6.11744e-05
6.07035e-05
6.03097e-05
5.99766e-05
5.9688e-05
5.94305e-05
5.9194e-05
5.89712e-05
5.87571e-05
5.85484e-05
5.8343e-05
5.81396e-05
5.79372e-05
5.77355e-05
5.75341e-05
5.73329e-05
5.71317e-05
5.69307e-05
5.67296e-05
5.65286e-05
5.63276e-05
5.61267e-05
5.59257e-05
5.57248e-05
5.55239e-05
5.5323e-05
5.51222e-05
5.49214e-05
5.47206e-05
5.45199e-05
5.43191e-05
5.41185e-05
5.39178e-05
5.37172e-05
5.35166e-05
5.33161e-05
5.31155e-05
5.29151e-05