/*--------------------------------*- C++ -*----------------------------------*\
| =========                 |                                                 |
| \\      /  F ield         | foam-extend: Open Source CFD                    |
|  \\    /   O peration     | Version:     4.0                                |
|   \\  /    A nd           | Web:         http://www.foam-extend.org         |
|    \\/     M anipulation  |                                                 |
\*---------------------------------------------------------------------------*/
FoamFile
{
    version     2.0;
    format      ascii;
    class       pointVectorField;
    location    "1";
    object      pointDD;
}
// * * * * * * * * * * * * * * * * * * * * * * * * * * * * * * * * * * * * * //

dimensions      [0 1 0 0 0 0 0];

internalField   nonuniform List<vector> 
9632
(
(-1.15356e-06 -6.87259e-07 0)
(-4.36077e-06 -2.99437e-06 0)
(-7.47494e-06 -4.63492e-06 0)
(-1.07876e-05 -6.27892e-06 0)
(-1.41971e-05 -8.17443e-06 0)
(-1.76612e-05 -1.04398e-05 0)
(-2.11545e-05 -1.3128e-05 0)
(-2.46626e-05 -1.62642e-05 0)
(-2.81758e-05 -1.98604e-05 0)
(-3.1688e-05 -2.3922e-05 0)
(-3.51951e-05 -2.8451e-05 0)
(-3.86942e-05 -3.34474e-05 0)
(-4.21838e-05 -3.89104e-05 0)
(-4.56629e-05 -4.48387e-05 0)
(-4.91306e-05 -5.12306e-05 0)
(-5.25867e-05 -5.80845e-05 0)
(-5.6031e-05 -6.53987e-05 0)
(-5.94632e-05 -7.31715e-05 0)
(-6.28835e-05 -8.14013e-05 0)
(-6.62916e-05 -9.00864e-05 0)
(-6.96876e-05 -9.92252e-05 0)
(-7.30715e-05 -0.000108816 0)
(-7.64434e-05 -0.000118857 0)
(-7.9803e-05 -0.000129347 0)
(-8.31506e-05 -0.000140284 0)
(-8.64861e-05 -0.000151667 0)
(-8.98095e-05 -0.000163494 0)
(-9.31208e-05 -0.000175763 0)
(-9.64199e-05 -0.000188472 0)
(-9.9707e-05 -0.000201621 0)
(-0.000102982 -0.000215207 0)
(-0.000106245 -0.000229229 0)
(-0.000109495 -0.000243685 0)
(-0.000112734 -0.000258574 0)
(-0.000115961 -0.000273894 0)
(-0.000119175 -0.000289643 0)
(-0.000122377 -0.000305821 0)
(-0.000125568 -0.000322424 0)
(-0.000128746 -0.000339452 0)
(-0.000131912 -0.000356902 0)
(-0.000135065 -0.000374774 0)
(-0.000138207 -0.000393066 0)
(-0.000141337 -0.000411776 0)
(-0.000144454 -0.000430902 0)
(-0.00014756 -0.000450444 0)
(-0.000150653 -0.000470398 0)
(-0.000153734 -0.000490764 0)
(-0.000156804 -0.00051154 0)
(-0.000159861 -0.000532725 0)
(-0.000162906 -0.000554316 0)
(-0.000165938 -0.000576313 0)
(-0.000168959 -0.000598713 0)
(-0.000171968 -0.000621515 0)
(-0.000174964 -0.000644717 0)
(-0.000177949 -0.000668318 0)
(-0.000180921 -0.000692316 0)
(-0.000183881 -0.00071671 0)
(-0.000186829 -0.000741498 0)
(-0.000189765 -0.000766677 0)
(-0.000192689 -0.000792248 0)
(-0.000195601 -0.000818208 0)
(-0.0001985 -0.000844554 0)
(-0.000201388 -0.000871287 0)
(-0.000204263 -0.000898404 0)
(-0.000207127 -0.000925904 0)
(-0.000209978 -0.000953784 0)
(-0.000212817 -0.000982044 0)
(-0.000215644 -0.00101068 0)
(-0.000218459 -0.0010397 0)
(-0.000221262 -0.00106908 0)
(-0.000224052 -0.00109885 0)
(-0.000226831 -0.00112898 0)
(-0.000229597 -0.00115948 0)
(-0.000232352 -0.00119035 0)
(-0.000235094 -0.00122159 0)
(-0.000237824 -0.00125319 0)
(-0.000240542 -0.00128515 0)
(-0.000243248 -0.00131748 0)
(-0.000245942 -0.00135017 0)
(-0.000248624 -0.00138321 0)
(-0.000251293 -0.00141661 0)
(-0.000253951 -0.00145037 0)
(-0.000256596 -0.00148448 0)
(-0.000259229 -0.00151894 0)
(-0.000261851 -0.00155375 0)
(-0.00026446 -0.00158891 0)
(-0.000267057 -0.00162442 0)
(-0.000269642 -0.00166027 0)
(-0.000272214 -0.00169647 0)
(-0.000274775 -0.00173301 0)
(-0.000277324 -0.00176989 0)
(-0.00027986 -0.00180711 0)
(-0.000282384 -0.00184467 0)
(-0.000284897 -0.00188256 0)
(-0.000287397 -0.00192079 0)
(-0.000289885 -0.00195934 0)
(-0.000292361 -0.00199823 0)
(-0.000294824 -0.00203745 0)
(-0.000297276 -0.002077 0)
(-0.000299716 -0.00211687 0)
(-0.000302143 -0.00215707 0)
(-0.000304559 -0.00219759 0)
(-0.000306962 -0.00223843 0)
(-0.000309353 -0.00227959 0)
(-0.000311732 -0.00232107 0)
(-0.000314099 -0.00236287 0)
(-0.000316454 -0.00240498 0)
(-0.000318797 -0.0024474 0)
(-0.000321127 -0.00249014 0)
(-0.000323446 -0.00253318 0)
(-0.000325752 -0.00257654 0)
(-0.000328047 -0.0026202 0)
(-0.000330329 -0.00266416 0)
(-0.000332599 -0.00270843 0)
(-0.000334857 -0.002753 0)
(-0.000337103 -0.00279787 0)
(-0.000339337 -0.00284304 0)
(-0.000341558 -0.00288851 0)
(-0.000343768 -0.00293427 0)
(-0.000345965 -0.00298033 0)
(-0.000348151 -0.00302668 0)
(-0.000350324 -0.00307331 0)
(-0.000352485 -0.00312024 0)
(-0.000354634 -0.00316746 0)
(-0.000356771 -0.00321496 0)
(-0.000358896 -0.00326274 0)
(-0.000361009 -0.00331081 0)
(-0.000363109 -0.00335916 0)
(-0.000365198 -0.00340778 0)
(-0.000367274 -0.00345669 0)
(-0.000369339 -0.00350587 0)
(-0.000371391 -0.00355533 0)
(-0.000373431 -0.00360505 0)
(-0.000375459 -0.00365505 0)
(-0.000377475 -0.00370532 0)
(-0.000379478 -0.00375586 0)
(-0.00038147 -0.00380666 0)
(-0.00038345 -0.00385773 0)
(-0.000385417 -0.00390906 0)
(-0.000387372 -0.00396066 0)
(-0.000389316 -0.00401251 0)
(-0.000391247 -0.00406462 0)
(-0.000393166 -0.00411699 0)
(-0.000395073 -0.00416961 0)
(-0.000396968 -0.00422249 0)
(-0.00039885 -0.00427561 0)
(-0.000400721 -0.00432899 0)
(-0.000402579 -0.00438262 0)
(-0.000404426 -0.00443649 0)
(-0.00040626 -0.00449061 0)
(-0.000408082 -0.00454498 0)
(-0.000409892 -0.00459958 0)
(-0.00041169 -0.00465443 0)
(-0.000413476 -0.00470951 0)
(-0.00041525 -0.00476483 0)
(-0.000417011 -0.00482039 0)
(-0.000418761 -0.00487618 0)
(-0.000420498 -0.00493221 0)
(-0.000422224 -0.00498846 0)
(-0.000423937 -0.00504495 0)
(-0.000425638 -0.00510166 0)
(-0.000427327 -0.0051586 0)
(-0.000429004 -0.00521576 0)
(-0.000430669 -0.00527314 0)
(-0.000432321 -0.00533075 0)
(-0.000433962 -0.00538858 0)
(-0.00043559 -0.00544662 0)
(-0.000437207 -0.00550488 0)
(-0.000438811 -0.00556335 0)
(-0.000440403 -0.00562204 0)
(-0.000441983 -0.00568094 0)
(-0.000443551 -0.00574005 0)
(-0.000445107 -0.00579937 0)
(-0.000446651 -0.00585889 0)
(-0.000448182 -0.00591862 0)
(-0.000449702 -0.00597855 0)
(-0.000451209 -0.00603869 0)
(-0.000452704 -0.00609902 0)
(-0.000454188 -0.00615956 0)
(-0.000455659 -0.00622029 0)
(-0.000457118 -0.00628121 0)
(-0.000458565 -0.00634233 0)
(-0.000459999 -0.00640364 0)
(-0.000461422 -0.00646514 0)
(-0.000462833 -0.00652683 0)
(-0.000464231 -0.00658871 0)
(-0.000465617 -0.00665077 0)
(-0.000466992 -0.00671302 0)
(-0.000468354 -0.00677545 0)
(-0.000469704 -0.00683806 0)
(-0.000471042 -0.00690085 0)
(-0.000472367 -0.00696382 0)
(-0.000473681 -0.00702696 0)
(-0.000474983 -0.00709028 0)
(-0.000476272 -0.00715377 0)
(-0.00047755 -0.00721743 0)
(-0.000478815 -0.00728127 0)
(-0.000480068 -0.00734526 0)
(-0.000481309 -0.00740943 0)
(-0.000482538 -0.00747376 0)
(-0.000483755 -0.00753825 0)
(-0.00048496 -0.00760291 0)
(-0.000486152 -0.00766772 0)
(-0.000487333 -0.00773269 0)
(-0.000488501 -0.00779782 0)
(-0.000489658 -0.00786311 0)
(-0.000490802 -0.00792855 0)
(-0.000491934 -0.00799413 0)
(-0.000493054 -0.00805987 0)
(-0.000494162 -0.00812576 0)
(-0.000495258 -0.0081918 0)
(-0.000496341 -0.00825798 0)
(-0.000497413 -0.0083243 0)
(-0.000498472 -0.00839077 0)
(-0.00049952 -0.00845737 0)
(-0.000500555 -0.00852412 0)
(-0.000501578 -0.008591 0)
(-0.000502589 -0.00865802 0)
(-0.000503588 -0.00872517 0)
(-0.000504575 -0.00879246 0)
(-0.000505549 -0.00885987 0)
(-0.000506512 -0.00892741 0)
(-0.000507463 -0.00899509 0)
(-0.000508401 -0.00906288 0)
(-0.000509327 -0.00913081 0)
(-0.000510241 -0.00919885 0)
(-0.000511144 -0.00926702 0)
(-0.000512034 -0.0093353 0)
(-0.000512911 -0.00940371 0)
(-0.000513777 -0.00947223 0)
(-0.000514631 -0.00954086 0)
(-0.000515472 -0.00960961 0)
(-0.000516302 -0.00967847 0)
(-0.000517119 -0.00974743 0)
(-0.000517924 -0.00981651 0)
(-0.000518717 -0.00988569 0)
(-0.000519499 -0.00995498 0)
(-0.000520267 -0.0100244 0)
(-0.000521024 -0.0100939 0)
(-0.000521769 -0.0101635 0)
(-0.000522502 -0.0102332 0)
(-0.000523222 -0.0103029 0)
(-0.00052393 -0.0103728 0)
(-0.000524627 -0.0104428 0)
(-0.000525311 -0.0105129 0)
(-0.000525983 -0.010583 0)
(-0.000526643 -0.0106533 0)
(-0.000527291 -0.0107236 0)
(-0.000527926 -0.010794 0)
(-0.00052855 -0.0108645 0)
(-0.000529162 -0.0109351 0)
(-0.000529761 -0.0110058 0)
(-0.000530348 -0.0110765 0)
(-0.000530924 -0.0111474 0)
(-0.000531487 -0.0112183 0)
(-0.000532038 -0.0112892 0)
(-0.000532576 -0.0113603 0)
(-0.000533103 -0.0114314 0)
(-0.000533618 -0.0115026 0)
(-0.000534121 -0.0115739 0)
(-0.000534611 -0.0116452 0)
(-0.000535089 -0.0117166 0)
(-0.000535556 -0.011788 0)
(-0.00053601 -0.0118595 0)
(-0.000536452 -0.0119311 0)
(-0.000536882 -0.0120027 0)
(-0.0005373 -0.0120744 0)
(-0.000537705 -0.0121462 0)
(-0.000538099 -0.0122179 0)
(-0.00053848 -0.0122898 0)
(-0.00053885 -0.0123617 0)
(-0.000539207 -0.0124336 0)
(-0.000539552 -0.0125056 0)
(-0.000539885 -0.0125777 0)
(-0.000540206 -0.0126497 0)
(-0.000540515 -0.0127219 0)
(-0.000540812 -0.012794 0)
(-0.000541097 -0.0128662 0)
(-0.000541369 -0.0129385 0)
(-0.00054163 -0.0130107 0)
(-0.000541878 -0.013083 0)
(-0.000542114 -0.0131554 0)
(-0.000542338 -0.0132278 0)
(-0.00054255 -0.0133002 0)
(-0.00054275 -0.0133726 0)
(-0.000542938 -0.013445 0)
(-0.000543114 -0.0135175 0)
(-0.000543277 -0.01359 0)
(-0.000543429 -0.0136625 0)
(-0.000543568 -0.0137351 0)
(-0.000543696 -0.0138076 0)
(-0.000543812 -0.0138802 0)
(-0.000543916 -0.0139528 0)
(-0.000544009 -0.0140254 0)
(-0.000544091 -0.014098 0)
(-0.000544163 -0.0141706 0)
(-0.000544226 -0.0142433 0)
(-0.000544282 -0.0143159 0)
(-0.000544335 -0.0143886 0)
(-0.00054439 -0.0144613 0)
(-0.000544427 -0.014534 0)
(4.39453e-17 6.44043e-17 0)
(-2.94554e-06 -1.79631e-06 0)
(-5.99516e-06 -3.3168e-06 0)
(-9.05518e-06 -4.90775e-06 0)
(-1.21157e-05 -6.78201e-06 0)
(-1.51763e-05 -9.03732e-06 0)
(-1.82367e-05 -1.17209e-05 0)
(-2.12952e-05 -1.48558e-05 0)
(-2.435e-05 -1.84528e-05 0)
(-2.73992e-05 -2.25167e-05 0)
(-3.04413e-05 -2.70489e-05 0)
(-3.34752e-05 -3.20492e-05 0)
(-3.65001e-05 -3.75165e-05 0)
(-3.95154e-05 -4.34492e-05 0)
(-4.25208e-05 -4.98457e-05 0)
(-4.5516e-05 -5.67044e-05 0)
(-4.8501e-05 -6.40234e-05 0)
(-5.14755e-05 -7.1801e-05 0)
(-5.44397e-05 -8.00357e-05 0)
(-5.73933e-05 -8.87256e-05 0)
(-6.03365e-05 -9.78692e-05 0)
(-6.32692e-05 -0.000107465 0)
(-6.61915e-05 -0.000117511 0)
(-6.91032e-05 -0.000128006 0)
(-7.20044e-05 -0.000138948 0)
(-7.48952e-05 -0.000150335 0)
(-7.77754e-05 -0.000162167 0)
(-8.06452e-05 -0.000174441 0)
(-8.35045e-05 -0.000187155 0)
(-8.63532e-05 -0.000200309 0)
(-8.91915e-05 -0.0002139 0)
(-9.20193e-05 -0.000227926 0)
(-9.48366e-05 -0.000242388 0)
(-9.76434e-05 -0.000257281 0)
(-0.00010044 -0.000272606 0)
(-0.000103226 -0.00028836 0)
(-0.000106001 -0.000304542 0)
(-0.000108766 -0.00032115 0)
(-0.00011152 -0.000338183 0)
(-0.000114264 -0.000355638 0)
(-0.000116997 -0.000373515 0)
(-0.00011972 -0.000391812 0)
(-0.000122433 -0.000410527 0)
(-0.000125134 -0.000429658 0)
(-0.000127826 -0.000449204 0)
(-0.000130507 -0.000469163 0)
(-0.000133177 -0.000489534 0)
(-0.000135837 -0.000510315 0)
(-0.000138486 -0.000531504 0)
(-0.000141125 -0.0005531 0)
(-0.000143754 -0.000575102 0)
(-0.000146372 -0.000597507 0)
(-0.000148979 -0.000620314 0)
(-0.000151576 -0.000643521 0)
(-0.000154163 -0.000667127 0)
(-0.000156739 -0.00069113 0)
(-0.000159304 -0.000715528 0)
(-0.000161859 -0.000740321 0)
(-0.000164404 -0.000765505 0)
(-0.000166938 -0.000791081 0)
(-0.000169461 -0.000817045 0)
(-0.000171974 -0.000843397 0)
(-0.000174477 -0.000870135 0)
(-0.000176969 -0.000897256 0)
(-0.00017945 -0.000924761 0)
(-0.000181921 -0.000952646 0)
(-0.000184382 -0.000980911 0)
(-0.000186832 -0.00100955 0)
(-0.000189271 -0.00103857 0)
(-0.000191701 -0.00106797 0)
(-0.000194119 -0.00109773 0)
(-0.000196527 -0.00112787 0)
(-0.000198925 -0.00115838 0)
(-0.000201312 -0.00118925 0)
(-0.000203689 -0.00122049 0)
(-0.000206055 -0.0012521 0)
(-0.00020841 -0.00128407 0)
(-0.000210756 -0.0013164 0)
(-0.00021309 -0.00134909 0)
(-0.000215414 -0.00138214 0)
(-0.000217728 -0.00141555 0)
(-0.000220031 -0.00144931 0)
(-0.000222324 -0.00148342 0)
(-0.000224606 -0.00151789 0)
(-0.000226878 -0.00155271 0)
(-0.000229139 -0.00158787 0)
(-0.00023139 -0.00162338 0)
(-0.00023363 -0.00165924 0)
(-0.00023586 -0.00169544 0)
(-0.000238079 -0.00173199 0)
(-0.000240288 -0.00176887 0)
(-0.000242486 -0.0018061 0)
(-0.000244674 -0.00184366 0)
(-0.000246851 -0.00188156 0)
(-0.000249018 -0.00191979 0)
(-0.000251174 -0.00195835 0)
(-0.00025332 -0.00199725 0)
(-0.000255455 -0.00203647 0)
(-0.00025758 -0.00207602 0)
(-0.000259694 -0.0021159 0)
(-0.000261798 -0.0021561 0)
(-0.000263891 -0.00219663 0)
(-0.000265974 -0.00223747 0)
(-0.000268047 -0.00227864 0)
(-0.000270108 -0.00232012 0)
(-0.00027216 -0.00236193 0)
(-0.000274201 -0.00240404 0)
(-0.000276231 -0.00244647 0)
(-0.000278251 -0.00248921 0)
(-0.00028026 -0.00253226 0)
(-0.000282259 -0.00257562 0)
(-0.000284248 -0.00261928 0)
(-0.000286226 -0.00266325 0)
(-0.000288193 -0.00270753 0)
(-0.00029015 -0.0027521 0)
(-0.000292096 -0.00279698 0)
(-0.000294032 -0.00284215 0)
(-0.000295958 -0.00288762 0)
(-0.000297873 -0.00293339 0)
(-0.000299777 -0.00297945 0)
(-0.000301671 -0.0030258 0)
(-0.000303555 -0.00307245 0)
(-0.000305428 -0.00311938 0)
(-0.00030729 -0.0031666 0)
(-0.000309142 -0.0032141 0)
(-0.000310984 -0.00326189 0)
(-0.000312815 -0.00330997 0)
(-0.000314635 -0.00335832 0)
(-0.000316445 -0.00340695 0)
(-0.000318245 -0.00345586 0)
(-0.000320034 -0.00350505 0)
(-0.000321812 -0.00355451 0)
(-0.000323581 -0.00360424 0)
(-0.000325338 -0.00365424 0)
(-0.000327085 -0.00370452 0)
(-0.000328822 -0.00375506 0)
(-0.000330548 -0.00380587 0)
(-0.000332264 -0.00385694 0)
(-0.000333969 -0.00390828 0)
(-0.000335663 -0.00395988 0)
(-0.000337347 -0.00401173 0)
(-0.000339021 -0.00406385 0)
(-0.000340684 -0.00411622 0)
(-0.000342337 -0.00416885 0)
(-0.000343979 -0.00422173 0)
(-0.000345611 -0.00427486 0)
(-0.000347232 -0.00432825 0)
(-0.000348843 -0.00438188 0)
(-0.000350443 -0.00443576 0)
(-0.000352032 -0.00448988 0)
(-0.000353612 -0.00454425 0)
(-0.00035518 -0.00459886 0)
(-0.000356739 -0.00465371 0)
(-0.000358286 -0.0047088 0)
(-0.000359824 -0.00476413 0)
(-0.00036135 -0.00481969 0)
(-0.000362867 -0.00487549 0)
(-0.000364372 -0.00493151 0)
(-0.000365868 -0.00498777 0)
(-0.000367352 -0.00504426 0)
(-0.000368827 -0.00510098 0)
(-0.000370291 -0.00515792 0)
(-0.000371744 -0.00521509 0)
(-0.000373187 -0.00527248 0)
(-0.000374619 -0.00533009 0)
(-0.000376041 -0.00538792 0)
(-0.000377452 -0.00544597 0)
(-0.000378853 -0.00550424 0)
(-0.000380243 -0.00556272 0)
(-0.000381623 -0.00562141 0)
(-0.000382993 -0.00568031 0)
(-0.000384351 -0.00573943 0)
(-0.0003857 -0.00579875 0)
(-0.000387038 -0.00585828 0)
(-0.000388365 -0.00591801 0)
(-0.000389682 -0.00597795 0)
(-0.000390988 -0.00603809 0)
(-0.000392284 -0.00609843 0)
(-0.00039357 -0.00615896 0)
(-0.000394845 -0.0062197 0)
(-0.000396109 -0.00628063 0)
(-0.000397363 -0.00634175 0)
(-0.000398607 -0.00640307 0)
(-0.00039984 -0.00646458 0)
(-0.000401062 -0.00652627 0)
(-0.000402274 -0.00658815 0)
(-0.000403476 -0.00665022 0)
(-0.000404667 -0.00671248 0)
(-0.000405847 -0.00677491 0)
(-0.000407017 -0.00683753 0)
(-0.000408177 -0.00690032 0)
(-0.000409326 -0.00696329 0)
(-0.000410464 -0.00702644 0)
(-0.000411592 -0.00708976 0)
(-0.00041271 -0.00715326 0)
(-0.000413817 -0.00721693 0)
(-0.000414913 -0.00728076 0)
(-0.000415999 -0.00734477 0)
(-0.000417075 -0.00740894 0)
(-0.00041814 -0.00747327 0)
(-0.000419195 -0.00753777 0)
(-0.000420239 -0.00760243 0)
(-0.000421272 -0.00766725 0)
(-0.000422296 -0.00773222 0)
(-0.000423308 -0.00779736 0)
(-0.00042431 -0.00786265 0)
(-0.000425302 -0.00792809 0)
(-0.000426283 -0.00799368 0)
(-0.000427254 -0.00805943 0)
(-0.000428214 -0.00812532 0)
(-0.000429164 -0.00819136 0)
(-0.000430103 -0.00825755 0)
(-0.000431032 -0.00832387 0)
(-0.00043195 -0.00839035 0)
(-0.000432858 -0.00845696 0)
(-0.000433755 -0.00852371 0)
(-0.000434641 -0.00859059 0)
(-0.000435518 -0.00865762 0)
(-0.000436383 -0.00872477 0)
(-0.000437239 -0.00879206 0)
(-0.000438083 -0.00885948 0)
(-0.000438918 -0.00892703 0)
(-0.000439741 -0.00899471 0)
(-0.000440555 -0.00906251 0)
(-0.000441358 -0.00913044 0)
(-0.00044215 -0.00919849 0)
(-0.000442932 -0.00926666 0)
(-0.000443703 -0.00933495 0)
(-0.000444464 -0.00940336 0)
(-0.000445214 -0.00947188 0)
(-0.000445954 -0.00954052 0)
(-0.000446683 -0.00960927 0)
(-0.000447402 -0.00967814 0)
(-0.00044811 -0.00974711 0)
(-0.000448808 -0.00981619 0)
(-0.000449496 -0.00988538 0)
(-0.000450173 -0.00995467 0)
(-0.000450839 -0.0100241 0)
(-0.000451495 -0.0100936 0)
(-0.00045214 -0.0101632 0)
(-0.000452775 -0.0102329 0)
(-0.0004534 -0.0103027 0)
(-0.000454014 -0.0103725 0)
(-0.000454617 -0.0104425 0)
(-0.00045521 -0.0105126 0)
(-0.000455792 -0.0105828 0)
(-0.000456364 -0.010653 0)
(-0.000456926 -0.0107234 0)
(-0.000457477 -0.0107938 0)
(-0.000458017 -0.0108643 0)
(-0.000458547 -0.0109349 0)
(-0.000459067 -0.0110056 0)
(-0.000459576 -0.0110763 0)
(-0.000460074 -0.0111471 0)
(-0.000460562 -0.011218 0)
(-0.00046104 -0.011289 0)
(-0.000461507 -0.0113601 0)
(-0.000461963 -0.0114312 0)
(-0.000462409 -0.0115024 0)
(-0.000462845 -0.0115737 0)
(-0.00046327 -0.011645 0)
(-0.000463685 -0.0117164 0)
(-0.000464089 -0.0117878 0)
(-0.000464482 -0.0118593 0)
(-0.000464865 -0.0119309 0)
(-0.000465238 -0.0120026 0)
(-0.0004656 -0.0120742 0)
(-0.000465952 -0.012146 0)
(-0.000466293 -0.0122178 0)
(-0.000466624 -0.0122896 0)
(-0.000466944 -0.0123615 0)
(-0.000467253 -0.0124335 0)
(-0.000467552 -0.0125055 0)
(-0.000467841 -0.0125775 0)
(-0.000468119 -0.0126496 0)
(-0.000468387 -0.0127217 0)
(-0.000468644 -0.0127939 0)
(-0.000468891 -0.0128661 0)
(-0.000469127 -0.0129384 0)
(-0.000469353 -0.0130106 0)
(-0.000469568 -0.0130829 0)
(-0.000469773 -0.0131553 0)
(-0.000469967 -0.0132277 0)
(-0.000470151 -0.0133001 0)
(-0.000470324 -0.0133725 0)
(-0.000470487 -0.013445 0)
(-0.000470639 -0.0135174 0)
(-0.000470781 -0.0135899 0)
(-0.000470912 -0.0136625 0)
(-0.000471033 -0.013735 0)
(-0.000471144 -0.0138076 0)
(-0.000471244 -0.0138802 0)
(-0.000471334 -0.0139527 0)
(-0.000471414 -0.0140254 0)
(-0.000471484 -0.014098 0)
(-0.000471544 -0.0141706 0)
(-0.000471595 -0.0142432 0)
(-0.000471637 -0.0143159 0)
(-0.00047167 -0.0143886 0)
(-0.000471695 -0.0144613 0)
(-0.000471716 -0.014534 0)
(-2.99921e-17 -5.56731e-17 0)
(-2.2569e-06 -9.48278e-07 0)
(-4.80247e-06 -2.20231e-06 0)
(-7.43068e-06 -3.7152e-06 0)
(-1.00711e-05 -5.56638e-06 0)
(-1.27045e-05 -7.81638e-06 0)
(-1.53264e-05 -1.05008e-05 0)
(-1.79369e-05 -1.36388e-05 0)
(-2.05367e-05 -1.72397e-05 0)
(-2.31264e-05 -2.13079e-05 0)
(-2.57065e-05 -2.58445e-05 0)
(-2.82773e-05 -3.08491e-05 0)
(-3.08389e-05 -3.63206e-05 0)
(-3.33916e-05 -4.22576e-05 0)
(-3.59353e-05 -4.86584e-05 0)
(-3.84701e-05 -5.55212e-05 0)
(-4.0996e-05 -6.28444e-05 0)
(-4.35131e-05 -7.06263e-05 0)
(-4.60212e-05 -7.88651e-05 0)
(-4.85205e-05 -8.75592e-05 0)
(-5.10109e-05 -9.6707e-05 0)
(-5.34924e-05 -0.000106307 0)
(-5.59651e-05 -0.000116357 0)
(-5.84288e-05 -0.000126856 0)
(-6.08837e-05 -0.000137802 0)
(-6.33297e-05 -0.000149194 0)
(-6.57669e-05 -0.000161029 0)
(-6.81951e-05 -0.000173307 0)
(-7.06145e-05 -0.000186026 0)
(-7.3025e-05 -0.000199184 0)
(-7.54266e-05 -0.000212779 0)
(-7.78194e-05 -0.00022681 0)
(-8.02032e-05 -0.000241275 0)
(-8.25782e-05 -0.000256173 0)
(-8.49443e-05 -0.000271502 0)
(-8.73016e-05 -0.00028726 0)
(-8.96499e-05 -0.000303446 0)
(-9.19894e-05 -0.000320058 0)
(-9.432e-05 -0.000337095 0)
(-9.66417e-05 -0.000354555 0)
(-9.89546e-05 -0.000372436 0)
(-0.000101259 -0.000390737 0)
(-0.000103554 -0.000409456 0)
(-0.00010584 -0.000428591 0)
(-0.000108117 -0.000448141 0)
(-0.000110386 -0.000468105 0)
(-0.000112645 -0.00048848 0)
(-0.000114896 -0.000509265 0)
(-0.000117138 -0.000530458 0)
(-0.000119371 -0.000552059 0)
(-0.000121595 -0.000574064 0)
(-0.00012381 -0.000596473 0)
(-0.000126016 -0.000619284 0)
(-0.000128214 -0.000642496 0)
(-0.000130402 -0.000666106 0)
(-0.000132582 -0.000690113 0)
(-0.000134753 -0.000714516 0)
(-0.000136915 -0.000739312 0)
(-0.000139068 -0.000764501 0)
(-0.000141212 -0.00079008 0)
(-0.000143347 -0.000816049 0)
(-0.000145473 -0.000842405 0)
(-0.000147591 -0.000869147 0)
(-0.0001497 -0.000896273 0)
(-0.000151799 -0.000923781 0)
(-0.00015389 -0.000951671 0)
(-0.000155972 -0.00097994 0)
(-0.000158045 -0.00100859 0)
(-0.00016011 -0.00103761 0)
(-0.000162165 -0.00106701 0)
(-0.000164212 -0.00109678 0)
(-0.000166249 -0.00112692 0)
(-0.000168278 -0.00115743 0)
(-0.000170298 -0.00118831 0)
(-0.000172309 -0.00121955 0)
(-0.000174311 -0.00125116 0)
(-0.000176304 -0.00128314 0)
(-0.000178288 -0.00131547 0)
(-0.000180264 -0.00134817 0)
(-0.000182231 -0.00138122 0)
(-0.000184188 -0.00141463 0)
(-0.000186137 -0.0014484 0)
(-0.000188077 -0.00148252 0)
(-0.000190008 -0.00151699 0)
(-0.00019193 -0.00155181 0)
(-0.000193844 -0.00158698 0)
(-0.000195748 -0.0016225 0)
(-0.000197644 -0.00165836 0)
(-0.00019953 -0.00169456 0)
(-0.000201408 -0.00173111 0)
(-0.000203277 -0.001768 0)
(-0.000205137 -0.00180523 0)
(-0.000206988 -0.0018428 0)
(-0.000208831 -0.0018807 0)
(-0.000210664 -0.00191893 0)
(-0.000212489 -0.0019575 0)
(-0.000214304 -0.0019964 0)
(-0.000216111 -0.00203563 0)
(-0.000217909 -0.00207518 0)
(-0.000219698 -0.00211507 0)
(-0.000221478 -0.00215527 0)
(-0.00022325 -0.0021958 0)
(-0.000225012 -0.00223665 0)
(-0.000226766 -0.00227782 0)
(-0.00022851 -0.00231931 0)
(-0.000230246 -0.00236112 0)
(-0.000231973 -0.00240324 0)
(-0.000233691 -0.00244567 0)
(-0.0002354 -0.00248841 0)
(-0.0002371 -0.00253147 0)
(-0.000238792 -0.00257483 0)
(-0.000240474 -0.0026185 0)
(-0.000242148 -0.00266247 0)
(-0.000243812 -0.00270675 0)
(-0.000245468 -0.00275133 0)
(-0.000247115 -0.00279621 0)
(-0.000248753 -0.00284139 0)
(-0.000250383 -0.00288686 0)
(-0.000252003 -0.00293263 0)
(-0.000253615 -0.0029787 0)
(-0.000255217 -0.00302506 0)
(-0.000256811 -0.0030717 0)
(-0.000258396 -0.00311864 0)
(-0.000259972 -0.00316586 0)
(-0.000261539 -0.00321337 0)
(-0.000263097 -0.00326117 0)
(-0.000264646 -0.00330924 0)
(-0.000266187 -0.0033576 0)
(-0.000267718 -0.00340624 0)
(-0.000269241 -0.00345515 0)
(-0.000270755 -0.00350434 0)
(-0.00027226 -0.00355381 0)
(-0.000273756 -0.00360354 0)
(-0.000275243 -0.00365355 0)
(-0.000276721 -0.00370383 0)
(-0.000278191 -0.00375438 0)
(-0.000279651 -0.00380519 0)
(-0.000281103 -0.00385627 0)
(-0.000282546 -0.00390761 0)
(-0.00028398 -0.00395921 0)
(-0.000285405 -0.00401107 0)
(-0.000286821 -0.00406319 0)
(-0.000288228 -0.00411557 0)
(-0.000289627 -0.0041682 0)
(-0.000291016 -0.00422108 0)
(-0.000292397 -0.00427422 0)
(-0.000293768 -0.00432761 0)
(-0.000295131 -0.00438124 0)
(-0.000296485 -0.00443513 0)
(-0.000297831 -0.00448926 0)
(-0.000299167 -0.00454363 0)
(-0.000300494 -0.00459824 0)
(-0.000301813 -0.0046531 0)
(-0.000303122 -0.00470819 0)
(-0.000304423 -0.00476352 0)
(-0.000305715 -0.00481909 0)
(-0.000306998 -0.00487489 0)
(-0.000308272 -0.00493092 0)
(-0.000309537 -0.00498719 0)
(-0.000310794 -0.00504368 0)
(-0.000312041 -0.0051004 0)
(-0.00031328 -0.00515735 0)
(-0.000314509 -0.00521452 0)
(-0.00031573 -0.00527191 0)
(-0.000316942 -0.00532953 0)
(-0.000318145 -0.00538736 0)
(-0.000319339 -0.00544541 0)
(-0.000320525 -0.00550368 0)
(-0.000321701 -0.00556217 0)
(-0.000322869 -0.00562086 0)
(-0.000324028 -0.00567977 0)
(-0.000325177 -0.00573889 0)
(-0.000326318 -0.00579822 0)
(-0.00032745 -0.00585775 0)
(-0.000328574 -0.00591749 0)
(-0.000329688 -0.00597743 0)
(-0.000330793 -0.00603757 0)
(-0.00033189 -0.00609792 0)
(-0.000332978 -0.00615846 0)
(-0.000334056 -0.0062192 0)
(-0.000335126 -0.00628013 0)
(-0.000336187 -0.00634126 0)
(-0.000337239 -0.00640258 0)
(-0.000338283 -0.00646409 0)
(-0.000339317 -0.00652579 0)
(-0.000340343 -0.00658768 0)
(-0.000341359 -0.00664975 0)
(-0.000342367 -0.00671201 0)
(-0.000343366 -0.00677444 0)
(-0.000344356 -0.00683706 0)
(-0.000345337 -0.00689986 0)
(-0.000346309 -0.00696284 0)
(-0.000347273 -0.00702599 0)
(-0.000348227 -0.00708932 0)
(-0.000349173 -0.00715282 0)
(-0.00035011 -0.00721649 0)
(-0.000351037 -0.00728033 0)
(-0.000351956 -0.00734434 0)
(-0.000352867 -0.00740851 0)
(-0.000353768 -0.00747285 0)
(-0.00035466 -0.00753735 0)
(-0.000355544 -0.00760202 0)
(-0.000356418 -0.00766684 0)
(-0.000357284 -0.00773182 0)
(-0.000358141 -0.00779696 0)
(-0.000358989 -0.00786225 0)
(-0.000359828 -0.0079277 0)
(-0.000360658 -0.0079933 0)
(-0.000361479 -0.00805905 0)
(-0.000362292 -0.00812494 0)
(-0.000363095 -0.00819099 0)
(-0.00036389 -0.00825718 0)
(-0.000364676 -0.00832351 0)
(-0.000365453 -0.00838998 0)
(-0.000366221 -0.0084566 0)
(-0.00036698 -0.00852335 0)
(-0.00036773 -0.00859025 0)
(-0.000368472 -0.00865727 0)
(-0.000369204 -0.00872443 0)
(-0.000369928 -0.00879173 0)
(-0.000370643 -0.00885915 0)
(-0.000371349 -0.0089267 0)
(-0.000372046 -0.00899439 0)
(-0.000372734 -0.00906219 0)
(-0.000373413 -0.00913012 0)
(-0.000374084 -0.00919818 0)
(-0.000374745 -0.00926635 0)
(-0.000375398 -0.00933465 0)
(-0.000376042 -0.00940306 0)
(-0.000376676 -0.00947159 0)
(-0.000377303 -0.00954023 0)
(-0.00037792 -0.00960899 0)
(-0.000378528 -0.00967785 0)
(-0.000379127 -0.00974683 0)
(-0.000379718 -0.00981592 0)
(-0.000380299 -0.00988511 0)
(-0.000380872 -0.00995441 0)
(-0.000381436 -0.0100238 0)
(-0.000381991 -0.0100933 0)
(-0.000382537 -0.0101629 0)
(-0.000383074 -0.0102326 0)
(-0.000383603 -0.0103024 0)
(-0.000384122 -0.0103723 0)
(-0.000384633 -0.0104423 0)
(-0.000385134 -0.0105124 0)
(-0.000385627 -0.0105825 0)
(-0.000386111 -0.0106528 0)
(-0.000386586 -0.0107231 0)
(-0.000387053 -0.0107936 0)
(-0.00038751 -0.0108641 0)
(-0.000387958 -0.0109347 0)
(-0.000388398 -0.0110054 0)
(-0.000388829 -0.0110761 0)
(-0.00038925 -0.0111469 0)
(-0.000389663 -0.0112179 0)
(-0.000390067 -0.0112888 0)
(-0.000390463 -0.0113599 0)
(-0.000390849 -0.011431 0)
(-0.000391226 -0.0115022 0)
(-0.000391595 -0.0115735 0)
(-0.000391955 -0.0116448 0)
(-0.000392305 -0.0117162 0)
(-0.000392647 -0.0117877 0)
(-0.00039298 -0.0118592 0)
(-0.000393305 -0.0119308 0)
(-0.00039362 -0.0120024 0)
(-0.000393926 -0.0120741 0)
(-0.000394224 -0.0121459 0)
(-0.000394512 -0.0122177 0)
(-0.000394792 -0.0122895 0)
(-0.000395063 -0.0123614 0)
(-0.000395325 -0.0124334 0)
(-0.000395578 -0.0125054 0)
(-0.000395822 -0.0125774 0)
(-0.000396058 -0.0126495 0)
(-0.000396284 -0.0127216 0)
(-0.000396502 -0.0127938 0)
(-0.000396711 -0.012866 0)
(-0.000396911 -0.0129383 0)
(-0.000397102 -0.0130105 0)
(-0.000397284 -0.0130829 0)
(-0.000397457 -0.0131552 0)
(-0.000397621 -0.0132276 0)
(-0.000397777 -0.0133 0)
(-0.000397923 -0.0133724 0)
(-0.000398061 -0.0134449 0)
(-0.00039819 -0.0135174 0)
(-0.00039831 -0.0135899 0)
(-0.000398421 -0.0136624 0)
(-0.000398523 -0.013735 0)
(-0.000398616 -0.0138075 0)
(-0.000398701 -0.0138801 0)
(-0.000398776 -0.0139527 0)
(-0.000398843 -0.0140253 0)
(-0.0003989 -0.0140979 0)
(-0.000398949 -0.0141706 0)
(-0.000398988 -0.0142432 0)
(-0.000399018 -0.0143159 0)
(-0.000399039 -0.0143885 0)
(-0.000399054 -0.0144612 0)
(-0.000399072 -0.0145339 0)
(-4.87296e-23 -1.23874e-23 0)
(-1.77918e-06 -4.04919e-07 0)
(-3.79981e-06 -1.36275e-06 0)
(-5.93505e-06 -2.74959e-06 0)
(-8.10815e-06 -4.55313e-06 0)
(-1.02848e-05 -6.7887e-06 0)
(-1.24519e-05 -9.47215e-06 0)
(-1.46058e-05 -1.26142e-05 0)
(-1.67464e-05 -1.62208e-05 0)
(-1.88748e-05 -2.02948e-05 0)
(-2.09923e-05 -2.48368e-05 0)
(-2.30999e-05 -2.98463e-05 0)
(-2.51985e-05 -3.53224e-05 0)
(-2.72887e-05 -4.12636e-05 0)
(-2.93709e-05 -4.76683e-05 0)
(-3.14455e-05 -5.45349e-05 0)
(-3.35125e-05 -6.18618e-05 0)
(-3.5572e-05 -6.96472e-05 0)
(-3.76243e-05 -7.78895e-05 0)
(-3.96692e-05 -8.65871e-05 0)
(-4.17068e-05 -9.57384e-05 0)
(-4.37371e-05 -0.000105342 0)
(-4.57602e-05 -0.000115395 0)
(-4.7776e-05 -0.000125898 0)
(-4.97846e-05 -0.000136847 0)
(-5.17858e-05 -0.000148243 0)
(-5.37799e-05 -0.000160082 0)
(-5.57666e-05 -0.000172363 0)
(-5.77461e-05 -0.000185085 0)
(-5.97183e-05 -0.000198246 0)
(-6.16833e-05 -0.000211845 0)
(-6.3641e-05 -0.000225879 0)
(-6.55914e-05 -0.000240348 0)
(-6.75346e-05 -0.000255249 0)
(-6.94705e-05 -0.000270582 0)
(-7.13992e-05 -0.000286343 0)
(-7.33205e-05 -0.000302533 0)
(-7.52347e-05 -0.000319149 0)
(-7.71415e-05 -0.000336189 0)
(-7.90411e-05 -0.000353652 0)
(-8.09334e-05 -0.000371537 0)
(-8.28185e-05 -0.000389841 0)
(-8.46963e-05 -0.000408563 0)
(-8.65668e-05 -0.000427702 0)
(-8.84301e-05 -0.000447256 0)
(-9.02861e-05 -0.000467222 0)
(-9.21348e-05 -0.000487601 0)
(-9.39763e-05 -0.00050839 0)
(-9.58105e-05 -0.000529587 0)
(-9.76375e-05 -0.00055119 0)
(-9.94572e-05 -0.000573199 0)
(-0.00010127 -0.000595612 0)
(-0.000103075 -0.000618426 0)
(-0.000104873 -0.000641641 0)
(-0.000106663 -0.000665255 0)
(-0.000108447 -0.000689265 0)
(-0.000110223 -0.000713671 0)
(-0.000111992 -0.000738472 0)
(-0.000113753 -0.000763664 0)
(-0.000115507 -0.000789247 0)
(-0.000117255 -0.000815219 0)
(-0.000118994 -0.000841578 0)
(-0.000120727 -0.000868323 0)
(-0.000122452 -0.000895453 0)
(-0.00012417 -0.000922965 0)
(-0.000125881 -0.000950858 0)
(-0.000127584 -0.00097913 0)
(-0.00012928 -0.00100778 0)
(-0.000130969 -0.00103681 0)
(-0.000132651 -0.00106621 0)
(-0.000134326 -0.00109598 0)
(-0.000135993 -0.00112613 0)
(-0.000137653 -0.00115664 0)
(-0.000139305 -0.00118752 0)
(-0.000140951 -0.00121877 0)
(-0.000142589 -0.00125039 0)
(-0.000144219 -0.00128236 0)
(-0.000145843 -0.0013147 0)
(-0.000147459 -0.0013474 0)
(-0.000149068 -0.00138046 0)
(-0.00015067 -0.00141387 0)
(-0.000152265 -0.00144764 0)
(-0.000153852 -0.00148176 0)
(-0.000155432 -0.00151624 0)
(-0.000157005 -0.00155106 0)
(-0.00015857 -0.00158624 0)
(-0.000160128 -0.00162176 0)
(-0.000161679 -0.00165762 0)
(-0.000163223 -0.00169383 0)
(-0.000164759 -0.00173038 0)
(-0.000166288 -0.00176728 0)
(-0.00016781 -0.00180451 0)
(-0.000169325 -0.00184208 0)
(-0.000170832 -0.00187998 0)
(-0.000172332 -0.00191822 0)
(-0.000173825 -0.00195679 0)
(-0.000175311 -0.00199569 0)
(-0.000176789 -0.00203493 0)
(-0.00017826 -0.00207449 0)
(-0.000179724 -0.00211437 0)
(-0.00018118 -0.00215458 0)
(-0.000182629 -0.00219511 0)
(-0.000184071 -0.00223597 0)
(-0.000185506 -0.00227714 0)
(-0.000186933 -0.00231863 0)
(-0.000188354 -0.00236044 0)