/*--------------------------------*- C++ -*----------------------------------*\
| =========                 |                                                 |
| \\      /  F ield         | foam-extend: Open Source CFD                    |
|  \\    /   O peration     | Version:     4.0                                |
|   \\  /    A nd           | Web:         http://www.foam-extend.org         |
|    \\/     M anipulation  |                                                 |
\*---------------------------------------------------------------------------*/
FoamFile
{
    version     2.0;
    format      ascii;
    class       volSymmTensorField;
    location    "1";
    object      sigma;
}
// * * * * * * * * * * * * * * * * * * * * * * * * * * * * * * * * * * * * * //

dimensions      [1 -1 -2 0 0 0 0];

internalField   nonuniform List<symmTensor> 
4500
(
(-1.07923e+08 -8.85368e+06 -5.59242e-12 -1.51759e+07 1.11848e-11 -3.69297e+07)
(-1.02686e+08 -1.53481e+06 2.23697e-11 -2.53285e+06 -3.35545e-11 -3.15658e+07)
(-1.05407e+08 -131109 2.23697e-11 -845374 -1.11848e-11 -3.18756e+07)
(-1.06729e+08 254324 -4.47393e-11 -187229 2.23697e-11 -3.20748e+07)
(-1.07562e+08 262526 0 -27288.7 -8.94787e-11 -3.22766e+07)
(-1.08022e+08 178160 -4.47393e-11 17202.3 -4.47393e-11 -3.24013e+07)
(-1.0823e+08 81765.7 2.68436e-10 24502.5 -4.47393e-11 -3.24617e+07)
(-1.08255e+08 -392.527 0 21604 -1.34218e-10 -3.247e+07)
(-1.08148e+08 -62936.7 -8.94787e-11 16504.9 0 -3.24393e+07)
(-1.07948e+08 -107602 -8.94787e-11 11751.3 -8.94787e-11 -3.23807e+07)
(-1.07684e+08 -138139 8.94787e-11 7998.39 -1.78957e-10 -3.23029e+07)
(-1.07379e+08 -158323 -4.47393e-10 5263.18 8.94787e-11 -3.22123e+07)
(-1.07048e+08 -171289 -1.78957e-10 3366.59 0 -3.21133e+07)
(-1.06699e+08 -179403 -1.78957e-10 2098.68 0 -3.20091e+07)
(-1.0634e+08 -184355 -5.36872e-10 1276.03 1.78957e-10 -3.19017e+07)
(-1.05975e+08 -187301 1.78957e-10 756.257 -3.57915e-10 -3.17924e+07)
(-1.05607e+08 -189006 -1.78957e-10 435.97 -5.36872e-10 -3.1682e+07)
(-1.05236e+08 -189962 7.15829e-10 243.521 1.07374e-09 -3.15709e+07)
(-1.04865e+08 -190479 1.43166e-09 130.882 0 -3.14594e+07)
(-1.04493e+08 -190744 -8.94787e-10 66.8539 -7.15829e-10 -3.13478e+07)
(-1.0412e+08 -190872 3.57915e-10 31.7096 3.57915e-10 -3.12361e+07)
(-1.03748e+08 -190926 -1.78957e-10 13.2281 -7.15829e-10 -3.11243e+07)
(-1.03375e+08 -190944 3.57915e-10 4.06791 2.14749e-09 -3.10126e+07)
(-1.03003e+08 -190945 0 -0.0474179 7.15829e-10 -3.09008e+07)
(-1.0263e+08 -190939 -3.57915e-10 -1.59594 1.78957e-09 -3.0789e+07)
(-1.02258e+08 -190932 -3.57915e-10 -1.92667 1.07374e-09 -3.06773e+07)
(-1.01885e+08 -190926 0 -1.72323 1.43166e-09 -3.05655e+07)
(-1.01512e+08 -190921 3.57915e-10 -1.3657 1.43166e-09 -3.04537e+07)
(-1.0114e+08 -190917 0 -1.01461 -7.15829e-10 -3.0342e+07)
(-1.00767e+08 -190914 0 -0.703888 -7.15829e-10 -3.02302e+07)
(-1.00395e+08 -190912 -1.07374e-09 -0.473493 -2.14749e-09 -3.01185e+07)
(-1.00022e+08 -190911 -3.57915e-10 -0.317074 7.15829e-10 -3.00067e+07)
(-9.96499e+07 -190910 7.15829e-10 -0.194716 7.15829e-10 -2.9895e+07)
(-9.92774e+07 -190910 -3.57915e-10 -0.119167 -1.43166e-09 -2.97832e+07)
(-9.89049e+07 -190909 1.07374e-09 -0.0794094 1.43166e-09 -2.96715e+07)
(-9.85324e+07 -190909 -7.15829e-10 -0.0403293 7.15829e-10 -2.95597e+07)
(-9.81599e+07 -190909 -2.14749e-09 -0.0215907 0 -2.9448e+07)
(-9.77874e+07 -190909 1.43166e-09 -0.0192378 0 -2.93362e+07)
(-9.74149e+07 -190909 3.57915e-10 -0.00430153 -1.43166e-09 -2.92245e+07)
(-9.70424e+07 -190909 3.57915e-10 -0.000582628 -4.29498e-09 -2.91127e+07)
(-9.66698e+07 -190909 7.15829e-10 -0.00726224 -2.86332e-09 -2.9001e+07)
(-9.62973e+07 -190909 1.78957e-09 0.00216707 -4.29498e-09 -2.88892e+07)
(-9.59248e+07 -190909 3.57915e-10 0.0027746 4.29498e-09 -2.87775e+07)
(-9.55523e+07 -190909 -3.57915e-10 -0.00554509 -4.29498e-09 -2.86657e+07)
(-9.51798e+07 -190909 -1.43166e-09 0.00285932 -5.72663e-09 -2.85539e+07)
(-9.48073e+07 -190909 7.15829e-10 0.0030122 0 -2.84422e+07)
(-9.44348e+07 -190909 0 -0.00541772 -1.43166e-09 -2.83304e+07)
(-9.40623e+07 -190909 -7.15829e-10 0.00278118 -1.43166e-08 -2.82187e+07)
(-9.36898e+07 -190909 3.57915e-10 0.00288769 -1.43166e-09 -2.81069e+07)
(-9.33173e+07 -190909 -3.57915e-10 -0.00545404 -1.43166e-09 -2.79952e+07)
(-9.29448e+07 -190909 1.43166e-09 0.00267338 2.86332e-09 -2.78834e+07)
(-9.25723e+07 -190909 -7.15829e-10 0.00282475 0 -2.77717e+07)
(-9.21998e+07 -190909 -7.15829e-10 -0.00540461 -2.86332e-09 -2.76599e+07)
(-9.18273e+07 -190909 -7.15829e-10 0.00263296 -8.58995e-09 -2.75482e+07)
(-9.14548e+07 -190909 1.43166e-09 0.00277224 -8.58995e-09 -2.74364e+07)
(-9.10823e+07 -190909 -2.14749e-09 -0.00536101 8.58995e-09 -2.73247e+07)
(-9.07098e+07 -190909 -2.14749e-09 0.00259613 0 -2.72129e+07)
(-9.03373e+07 -190909 0 0.00273518 0 -2.71012e+07)
(-8.99648e+07 -190909 7.15829e-10 -0.00529055 8.58995e-09 -2.69894e+07)
(-8.95922e+07 -190909 -2.14749e-09 0.00255971 -8.58995e-09 -2.68777e+07)
(-8.92197e+07 -190909 7.15829e-10 0.00271937 -2.86332e-09 -2.67659e+07)
(-8.88472e+07 -190909 0 -0.00521092 0 -2.66542e+07)
(-8.84747e+07 -190909 -7.15829e-10 0.00252173 0 -2.65424e+07)
(-8.81022e+07 -190909 -7.15829e-10 0.00263448 -8.58995e-09 -2.64307e+07)
(-8.77297e+07 -190909 7.15829e-10 -0.00520047 1.43166e-08 -2.63189e+07)
(-8.73572e+07 -190909 7.15829e-10 0.00246135 -5.72663e-09 -2.62072e+07)
(-8.69847e+07 -190909 0 0.00263649 -5.72663e-09 -2.60954e+07)
(-8.66122e+07 -190909 7.15829e-10 -0.00508575 -2.86332e-09 -2.59837e+07)
(-8.62397e+07 -190909 7.15829e-10 0.00245054 2.86332e-09 -2.58719e+07)
(-8.58672e+07 -190909 7.15829e-10 0.00259985 -5.72663e-09 -2.57602e+07)
(-8.54947e+07 -190909 1.43166e-09 -0.00501566 -5.72664e-09 -2.56484e+07)
(-8.51222e+07 -190909 -7.15829e-10 0.00244216 0 -2.55367e+07)
(-8.47497e+07 -190909 0 0.00256091 2.86332e-09 -2.54249e+07)
(-8.43772e+07 -190909 -1.43166e-09 -0.00493865 -5.72664e-09 -2.53132e+07)
(-8.40047e+07 -190909 0 0.00242814 0 -2.52014e+07)
(-8.36322e+07 -190909 1.43166e-09 0.00255111 0 -2.50896e+07)
(-8.32597e+07 -190909 -1.43166e-09 -0.00490117 2.86332e-09 -2.49779e+07)
(-8.28871e+07 -190909 7.15829e-10 0.00234824 0 -2.48661e+07)
(-8.25146e+07 -190909 0 0.00250717 -1.71799e-08 -2.47544e+07)
(-8.21421e+07 -190909 7.15829e-10 -0.00478728 5.72664e-09 -2.46426e+07)
(-8.17696e+07 -190909 0 0.00237036 1.14533e-08 -2.45309e+07)
(-8.13971e+07 -190909 0 0.00249484 5.72663e-09 -2.44191e+07)
(-8.10246e+07 -190909 0 -0.00475764 0 -2.43074e+07)
(-8.06521e+07 -190909 -7.15829e-10 0.00229529 5.72663e-09 -2.41956e+07)
(-8.02796e+07 -190909 2.14749e-09 0.0024175 1.14533e-08 -2.40839e+07)
(-7.99071e+07 -190909 2.14749e-09 -0.0047268 1.14533e-08 -2.39721e+07)
(-7.95346e+07 -190909 -7.15829e-10 0.00223999 1.14533e-08 -2.38604e+07)
(-7.91621e+07 -190909 -7.15829e-10 0.00237156 1.14533e-08 -2.37486e+07)
(-7.87896e+07 -190909 5.72664e-09 -0.00466286 5.72664e-09 -2.36369e+07)
(-7.84171e+07 -190909 1.43166e-09 0.00222051 -1.14533e-08 -2.35251e+07)
(-7.80446e+07 -190909 7.15829e-10 0.00234054 0 -2.34134e+07)
(-7.76721e+07 -190909 0 -0.00457352 -5.72664e-09 -2.33016e+07)
(-7.72996e+07 -190909 -7.15829e-10 0.00218116 1.14533e-08 -2.31899e+07)
(-7.69271e+07 -190909 0 0.00235021 3.43598e-08 -2.30781e+07)
(-7.65546e+07 -190909 0 -0.00449128 1.14533e-08 -2.29664e+07)
(-7.6182e+07 -190909 0 0.00217324 1.14533e-08 -2.28546e+07)
(-7.58095e+07 -190909 -7.15829e-10 0.00227655 2.29065e-08 -2.27429e+07)
(-7.5437e+07 -190909 7.15829e-10 -0.00443992 1.14533e-08 -2.26311e+07)
(-7.50645e+07 -190909 4.29498e-09 0.00212485 4.58131e-08 -2.25194e+07)
(-7.4692e+07 -190909 1.43166e-09 0.00225995 0 -2.24076e+07)
(-7.43195e+07 -190909 -2.14749e-09 -0.00437836 -2.86332e-08 -2.22959e+07)
(-7.3947e+07 -190909 0 0.0020954 0 -2.21841e+07)
(-7.35745e+07 -190909 0 0.00222578 5.72663e-09 -2.20724e+07)
(-7.3202e+07 -190909 -7.15829e-10 -0.0043407 -5.72664e-09 -2.19606e+07)
(-7.28295e+07 -190909 3.57915e-09 0.00201568 5.72663e-09 -2.18488e+07)
(-7.2457e+07 -190909 2.14749e-09 0.00216091 1.14533e-08 -2.17371e+07)
(-7.20845e+07 -190909 -2.86332e-09 -0.00420409 -2.29065e-08 -2.16253e+07)
(-7.1712e+07 -190909 3.57915e-09 0.00198948 6.2993e-08 -2.15136e+07)
(-7.13395e+07 -190909 -1.43166e-09 0.00211125 1.71799e-08 -2.14018e+07)
(-7.0967e+07 -190909 1.43166e-09 -0.00424248 0 -2.12901e+07)
(-7.05945e+07 -190909 1.43166e-09 0.00197638 -5.72663e-09 -2.11783e+07)
(-7.0222e+07 -190909 0 0.00207103 2.29065e-08 -2.10666e+07)
(-6.98495e+07 -190909 -7.15829e-10 -0.00418539 -1.14533e-08 -2.09548e+07)
(-6.94769e+07 -190909 3.57915e-09 0.00192772 2.29065e-08 -2.08431e+07)
(-6.91044e+07 -190909 7.15829e-10 0.00206479 -1.14533e-08 -2.07313e+07)
(-6.87319e+07 -190909 -1.43166e-09 -0.00404804 -2.29065e-08 -2.06196e+07)
(-6.83594e+07 -190909 0 0.00192415 1.14533e-08 -2.05078e+07)
(-6.79869e+07 -190909 -6.44246e-09 0.00200523 4.58131e-08 -2.03961e+07)
(-6.76144e+07 -190909 -1.43166e-09 -0.00403815 1.14533e-08 -2.02843e+07)
(-6.72419e+07 -190909 -5.72663e-09 0.00188741 4.58131e-08 -2.01726e+07)
(-6.68694e+07 -190909 -7.15829e-09 0.00194065 -4.58131e-08 -2.00608e+07)
(-6.64969e+07 -190909 -4.29498e-09 -0.00401643 -2.29065e-08 -1.99491e+07)
(-6.61244e+07 -190909 1.43166e-09 0.00188796 -3.43598e-08 -1.98373e+07)
(-6.57519e+07 -190909 0 0.00212014 -6.87196e-08 -1.97256e+07)
(-6.53794e+07 -190909 1.43166e-09 -0.00375347 0 -1.96138e+07)
(-6.50069e+07 -190909 -1.43166e-09 0.00186624 2.29065e-08 -1.95021e+07)
(-6.46344e+07 -190909 -2.86332e-09 0.00205444 -1.14533e-08 -1.93903e+07)
(-6.42619e+07 -190909 4.29498e-09 -0.00373396 -1.14533e-08 -1.92786e+07)
(-6.38894e+07 -190909 7.15829e-09 0.00186917 -1.14533e-08 -1.91668e+07)
(-6.35169e+07 -190909 1.43166e-09 0.00199836 -3.43598e-08 -1.90551e+07)
(-6.31444e+07 -190909 -1.43166e-09 -0.00368741 4.58131e-08 -1.89433e+07)
(-6.27718e+07 -190909 4.29498e-09 0.00174759 8.01729e-08 -1.88316e+07)
(-6.23993e+07 -190909 -2.86332e-09 0.00183591 -5.72663e-08 -1.87198e+07)
(-6.20268e+07 -190909 4.29498e-09 -0.00373166 4.58131e-08 -1.86081e+07)
(-6.16543e+07 -190909 0 0.00156049 -1.14533e-08 -1.84963e+07)
(-6.12818e+07 -190909 -2.86332e-09 0.001754 1.14533e-08 -1.83845e+07)
(-6.09093e+07 -190909 2.86332e-09 -0.00363041 -1.14533e-08 -1.82728e+07)
(-6.05368e+07 -190909 -8.58995e-09 0.00167777 1.14533e-08 -1.8161e+07)
(-6.01643e+07 -190909 -1.43166e-09 0.00185378 -1.14533e-08 -1.80493e+07)
(-5.97918e+07 -190909 1.43166e-09 -0.00344807 2.29065e-08 -1.79375e+07)
(-5.94193e+07 -190909 7.15829e-09 0.00175189 1.14533e-08 -1.78258e+07)
(-5.90468e+07 -190909 -1.43166e-09 0.00176106 4.58131e-08 -1.7714e+07)
(-5.86743e+07 -190909 -1.43166e-09 -0.00355894 -1.14533e-08 -1.76023e+07)
(-5.83018e+07 -190909 -2.86332e-09 0.00158531 -4.58131e-08 -1.74905e+07)
(-5.79293e+07 -190909 1.43166e-09 0.0017616 -2.29065e-08 -1.73788e+07)
(-5.75568e+07 -190909 -2.86332e-09 -0.00349646 0 -1.7267e+07)
(-5.71843e+07 -190909 -1.43166e-09 0.00156461 -2.29065e-08 -1.71553e+07)
(-5.68118e+07 -190909 -2.86332e-09 0.00156085 -2.29065e-08 -1.70435e+07)
(-5.64393e+07 -190909 -2.86332e-09 -0.00232667 -1.14533e-08 -1.69318e+07)
(-5.60667e+07 -190909 -2.86332e-09 -0.00629105 3.43598e-08 -1.682e+07)
(-5.56942e+07 -190909 -1.43166e-09 0.0244968 0 -1.67083e+07)
(-5.53217e+07 -190909 -1.43166e-09 -0.0336158 2.29065e-08 -1.65965e+07)
(-5.49492e+07 -190909 1.43166e-09 0.0154527 1.14533e-08 -1.64848e+07)
(-5.45767e+07 -190909 2.86332e-09 0.0166706 2.29065e-08 -1.6373e+07)
(-5.42042e+07 -190909 4.29498e-09 -0.0319831 -2.29065e-08 -1.62613e+07)
(-5.38317e+07 -190909 0 0.0151465 1.14533e-08 -1.61495e+07)
(-5.34592e+07 -190909 0 0.0165771 -2.29065e-08 -1.60378e+07)
(-5.30867e+07 -190909 4.29498e-09 -0.0311096 1.14533e-08 -1.5926e+07)
(-5.27142e+07 -190909 0 0.0148411 -3.43598e-08 -1.58143e+07)
(-5.23417e+07 -190909 2.86332e-09 0.0162122 8.01729e-08 -1.57025e+07)
(-5.19692e+07 -190909 -2.86332e-09 -0.0304714 -2.29065e-08 -1.55908e+07)
(-5.15967e+07 -190909 2.86332e-09 0.0144309 3.43598e-08 -1.5479e+07)
(-5.12242e+07 -190909 4.29498e-09 0.0159483 2.29065e-08 -1.53673e+07)
(-5.08517e+07 -190909 1.43166e-09 -0.0296611 -3.43598e-08 -1.52555e+07)
(-5.04792e+07 -190909 1.43166e-09 0.0143645 1.14533e-08 -1.51437e+07)
(-5.01067e+07 -190909 0 0.0156234 6.87196e-08 -1.5032e+07)
(-4.97342e+07 -190909 0 -0.0292524 0 -1.49202e+07)
(-4.93616e+07 -190909 0 0.0136585 4.58131e-08 -1.48085e+07)
(-4.89891e+07 -190909 1.43166e-09 0.01521 6.87196e-08 -1.46967e+07)
(-4.86166e+07 -190909 -2.86332e-09 -0.0285581 -4.58131e-08 -1.4585e+07)
(-4.82441e+07 -190909 4.29498e-09 0.0135385 9.16262e-08 -1.44732e+07)
(-4.78716e+07 -190909 1.43166e-09 0.015058 -4.58131e-08 -1.43615e+07)
(-4.74991e+07 -190909 1.43166e-09 -0.0278861 2.29065e-08 -1.42497e+07)
(-4.71266e+07 -190909 -4.29498e-09 0.0130882 -6.87196e-08 -1.4138e+07)
(-4.67541e+07 -190909 1.43166e-09 0.0146456 6.87196e-08 -1.40262e+07)
(-4.63816e+07 -190909 4.29498e-09 -0.0271472 6.87196e-08 -1.39145e+07)
(-4.60091e+07 -190909 4.29498e-09 0.0127318 2.29065e-08 -1.38027e+07)
(-4.56366e+07 -190909 -7.15829e-09 0.0143119 -4.58131e-08 -1.3691e+07)
(-4.52641e+07 -190909 0 -0.0265298 -2.29065e-08 -1.35792e+07)
(-4.48916e+07 -190909 -1.43166e-09 0.0125353 -2.29065e-08 -1.34675e+07)
(-4.45191e+07 -190909 1.43166e-09 0.0140147 -4.58131e-08 -1.33557e+07)
(-4.41466e+07 -190909 0 -0.0257289 -4.58131e-08 -1.3244e+07)
(-4.37741e+07 -190909 1.43166e-09 0.0122529 6.87196e-08 -1.31322e+07)
(-4.34016e+07 -190909 2.86332e-09 0.0136779 -6.87196e-08 -1.30205e+07)
(-4.30291e+07 -190909 7.15829e-09 -0.0250767 0 -1.29087e+07)
(-4.26565e+07 -190909 -1.43166e-09 0.0120094 -2.29065e-08 -1.2797e+07)
(-4.2284e+07 -190909 2.86332e-09 0.0133435 0 -1.26852e+07)
(-4.19115e+07 -190909 1.43166e-09 -0.0244571 9.16262e-08 -1.25735e+07)
(-4.1539e+07 -190909 0 0.0115918 1.14533e-07 -1.24617e+07)
(-4.11665e+07 -190909 1.43166e-09 0.0130957 0 -1.235e+07)
(-4.0794e+07 -190909 1.43166e-09 -0.023698 2.29065e-08 -1.22382e+07)
(-4.04215e+07 -190909 -2.86332e-09 0.0112726 2.29065e-08 -1.21265e+07)
(-4.0049e+07 -190909 1.43166e-09 0.0126215 -2.29065e-08 -1.20147e+07)
(-3.96765e+07 -190909 0 -0.0230806 0 -1.1903e+07)
(-3.9304e+07 -190909 -5.72663e-09 0.0109851 6.87196e-08 -1.17912e+07)
(-3.89315e+07 -190909 4.29498e-09 0.0122045 6.87196e-08 -1.16794e+07)
(-3.8559e+07 -190909 -1.43166e-09 -0.0226395 -4.58131e-08 -1.15677e+07)
(-3.81865e+07 -190909 -2.86332e-09 0.0108003 -4.58131e-08 -1.14559e+07)
(-3.7814e+07 -190909 5.72663e-09 0.0123805 2.29065e-08 -1.13442e+07)
(-3.74415e+07 -190909 -4.29498e-09 -0.0215558 4.58131e-08 -1.12324e+07)
(-3.7069e+07 -190909 -1.43166e-09 0.0106042 6.87196e-08 -1.11207e+07)
(-3.66965e+07 -190909 0 0.0117454 2.29065e-08 -1.10089e+07)
(-3.6324e+07 -190909 5.72664e-09 -0.0211207 2.29065e-08 -1.08972e+07)
(-3.59514e+07 -190909 2.86332e-09 0.0102324 4.58131e-08 -1.07854e+07)
(-3.55789e+07 -190909 -1.43166e-09 0.011436 -4.58131e-08 -1.06737e+07)
(-3.52064e+07 -190909 7.15829e-09 -0.0207291 4.58131e-08 -1.05619e+07)
(-3.48339e+07 -190909 5.72663e-09 0.00948633 -6.87196e-08 -1.04502e+07)
(-3.44614e+07 -190909 -2.86332e-09 0.0110049 2.29065e-08 -1.03384e+07)
(-3.40889e+07 -190909 -4.29498e-09 -0.019914 6.87196e-08 -1.02267e+07)
(-3.37164e+07 -190909 1.43166e-09 0.00929007 9.16262e-08 -1.01149e+07)
(-3.33439e+07 -190909 -2.86332e-09 0.010705 4.58131e-08 -1.00032e+07)
(-3.29714e+07 -190909 1.43166e-09 -0.0192801 1.37439e-07 -9.89142e+06)
(-3.25989e+07 -190909 1.43166e-09 0.00894821 2.29065e-08 -9.77967e+06)
(-3.22264e+07 -190909 0 0.0101192 1.37439e-07 -9.66792e+06)
(-3.18539e+07 -190909 -1.43166e-09 -0.0189228 2.29065e-08 -9.55617e+06)
(-3.14814e+07 -190909 -1.43166e-09 0.00842457 4.58131e-08 -9.44441e+06)
(-3.11089e+07 -190909 5.72663e-09 0.0100981 6.87196e-08 -9.33266e+06)
(-3.07364e+07 -190909 0 -0.017477 0 -9.22091e+06)
(-3.03639e+07 -190909 -4.29498e-09 0.00840853 2.29065e-08 -9.10916e+06)
(-2.99914e+07 -190909 -1.43166e-09 0.00956723 -4.58131e-08 -8.99741e+06)
(-2.96189e+07 -190909 1.43166e-09 -0.0172905 -2.29065e-08 -8.88566e+06)
(-2.92463e+07 -190909 8.58995e-09 0.007945 1.60346e-07 -8.7739e+06)
(-2.88738e+07 -190909 2.86332e-09 0.009456 6.87196e-08 -8.66215e+06)
(-2.85013e+07 -190909 1.43166e-09 -0.0163888 0 -8.5504e+06)
(-2.81288e+07 -190909 2.86332e-09 0.00771822 -2.29065e-08 -8.43865e+06)
(-2.77563e+07 -190909 0 0.00882589 -2.29065e-08 -8.3269e+06)
(-2.73838e+07 -190909 -2.86332e-09 -0.0162855 -2.29065e-08 -8.21515e+06)
(-2.70113e+07 -190909 -1.43166e-09 0.00712842 -4.58131e-08 -8.10339e+06)
(-2.66388e+07 -190909 2.86332e-09 0.00876597 1.14533e-07 -7.99164e+06)
(-2.62663e+07 -190909 -1.43166e-09 -0.0150403 2.29065e-08 -7.87989e+06)
(-2.58938e+07 -190909 -2.86332e-09 0.00729756 -2.29065e-08 -7.76814e+06)
(-2.55213e+07 -190909 2.86332e-09 0.00849714 4.58131e-08 -7.65639e+06)
(-2.51488e+07 -190909 2.86332e-09 -0.0146013 -2.29065e-08 -7.54464e+06)
(-2.47763e+07 -190909 1.43166e-09 0.00678931 -2.29065e-08 -7.43288e+06)
(-2.44038e+07 -190909 1.43166e-09 0.00790651 6.87196e-08 -7.32113e+06)
(-2.40313e+07 -190909 5.72664e-09 -0.0139759 -9.16262e-08 -7.20938e+06)
(-2.36588e+07 -190909 0 0.00655237 2.29065e-08 -7.09763e+06)
(-2.32863e+07 -190909 -2.86332e-09 0.00753992 4.58131e-08 -6.98588e+06)
(-2.29138e+07 -190909 2.86332e-09 -0.0134788 0 -6.87413e+06)
(-2.25412e+07 -190909 0 0.00611522 2.29065e-08 -6.76237e+06)
(-2.21687e+07 -190909 -1.43166e-09 0.00759095 4.58131e-08 -6.65062e+06)
(-2.17962e+07 -190909 0 -0.0125854 2.29065e-08 -6.53887e+06)
(-2.14237e+07 -190909 -2.86332e-09 0.00560633 0 -6.42712e+06)
(-2.10512e+07 -190909 2.86332e-09 0.00696304 2.29065e-08 -6.31537e+06)
(-2.06787e+07 -190909 0 -0.0121073 -4.58131e-08 -6.20362e+06)
(-2.03062e+07 -190909 2.86332e-09 0.00542729 6.87196e-08 -6.09186e+06)
(-1.99337e+07 -190909 4.29498e-09 0.00672673 2.29065e-08 -5.98011e+06)
(-1.95612e+07 -190909 -2.86332e-09 -0.0113971 -4.58131e-08 -5.86836e+06)
(-1.91887e+07 -190909 1.43166e-09 0.00471178 9.16262e-08 -5.75661e+06)
(-1.88162e+07 -190909 -1.43166e-09 0.00640613 -2.29065e-07 -5.64486e+06)
(-1.84437e+07 -190909 1.43166e-09 -0.0107684 -4.58131e-08 -5.53311e+06)
(-1.80712e+07 -190909 -2.86332e-09 0.00439595 0 -5.42135e+06)
(-1.76987e+07 -190909 -1.43166e-09 0.00607152 -1.37439e-07 -5.3096e+06)
(-1.73262e+07 -190909 -7.15829e-09 -0.0101094 4.58131e-08 -5.19785e+06)
(-1.69537e+07 -190909 0 0.00411154 -4.58131e-08 -5.0861e+06)
(-1.65812e+07 -190909 5.72663e-09 0.00559753 1.37439e-07 -4.97435e+06)
(-1.62087e+07 -190909 -1.43166e-09 -0.00945619 9.16262e-08 -4.8626e+06)
(-1.58361e+07 -190909 1.43166e-09 0.00400709 4.58131e-08 -4.75084e+06)
(-1.54636e+07 -190909 -5.72663e-09 0.00533952 4.58131e-08 -4.63909e+06)
(-1.50911e+07 -190909 1.43166e-09 -0.00877705 -9.16262e-08 -4.52734e+06)
(-1.47186e+07 -190909 -4.29498e-09 0.00371452 4.58131e-08 -4.41559e+06)
(-1.43461e+07 -190909 1.43166e-09 0.00529068 1.83252e-07 -4.30384e+06)
(-1.39736e+07 -190909 -1.43166e-09 -0.0075007 1.83252e-07 -4.19209e+06)
(-1.36011e+07 -190909 -1.43166e-09 0.00467651 0 -4.08033e+06)
(-1.32286e+07 -190909 1.43166e-09 0.00714455 -9.16262e-08 -3.96858e+06)
(-1.28561e+07 -190909 0 -0.00297748 4.58131e-08 -3.85683e+06)
(-1.24836e+07 -190909 -1.43166e-09 0.0111549 4.58131e-08 -3.74508e+06)
(-1.21111e+07 -190909 -7.15829e-09 0.0180375 2.29065e-07 -3.63333e+06)
(-1.17386e+07 -190909 -1.43166e-09 0.0152609 0 -3.52158e+06)
(-1.13661e+07 -190909 -1.43166e-09 0.0378956 1.83252e-07 -3.40982e+06)
(-1.09936e+07 -190909 0 0.058775 0 -3.29807e+06)
(-1.06211e+07 -190910 0 0.0764068 4.58131e-08 -3.18632e+06)
(-1.02486e+07 -190910 0 0.122754 4.58131e-08 -3.07457e+06)
(-9.87605e+06 -190910 -1.43166e-09 0.171818 -9.16262e-08 -2.96282e+06)
(-9.50355e+06 -190911 4.29498e-09 0.215385 4.58131e-08 -2.85106e+06)
(-9.13104e+06 -190912 -1.43166e-09 0.266299 -4.58131e-08 -2.73931e+06)
(-8.75852e+06 -190913 0 0.26776 4.58131e-08 -2.62756e+06)
(-8.38601e+06 -190914 0 0.145313 -4.58131e-08 -2.5158e+06)
(-8.0135e+06 -190914 2.86332e-09 -0.216839 -1.37439e-07 -2.40405e+06)
(-7.64098e+06 -190913 0 -1.09618 1.37439e-07 -2.29229e+06)
(-7.26847e+06 -190909 2.86332e-09 -2.95857 4.58131e-08 -2.18054e+06)
(-6.89596e+06 -190897 0 -6.58399 -4.58131e-08 -2.06879e+06)
(-6.52349e+06 -190870 4.29498e-09 -13.3389 9.16262e-08 -1.95705e+06)
(-6.15106e+06 -190818 1.43166e-09 -25.4455 4.58131e-08 -1.84533e+06)
(-5.77875e+06 -190717 4.29498e-09 -46.4489 4.58131e-08 -1.73364e+06)
(-5.40665e+06 -190536 -1.43166e-09 -81.946 9.16262e-08 -1.62202e+06)
(-5.03493e+06 -190216 2.86332e-09 -140.469 9.16262e-08 -1.51052e+06)
(-4.66387e+06 -189671 -4.29498e-09 -234.664 9.16262e-08 -1.39923e+06)
(-4.29394e+06 -188765 -1.43166e-09 -382.703 4.58131e-08 -1.2883e+06)
(-3.92589e+06 -187293 1.43166e-09 -609.471 1.37439e-07 -1.17795e+06)
(-3.56088e+06 -184961 0 -946.644 0 -1.06855e+06)
(-3.20067e+06 -181358 -4.29498e-09 -1428.94 1.37439e-07 -960631)
(-2.84789e+06 -175948 1.43166e-09 -2078.62 4.58131e-08 -854992)
(-2.50634e+06 -168104 -1.43166e-09 -2851.97 -9.16262e-08 -752757)
(-2.18142e+06 -157273 1.43166e-09 -3476.75 9.16262e-08 -655470)
(-1.88079e+06 -143561 -4.29498e-09 -2793.03 -4.58131e-08 -565076)
(-1.61639e+06 -129278 -4.29498e-09 2577.42 1.83252e-07 -484142)
(-1.39825e+06 -126868 -4.29498e-09 30849.8 1.83252e-07 -410219)
(-1.27444e+06 -163870 4.29498e-09 92463.4 -1.37439e-07 -354593)
(-663938 -500116 -1.43166e-09 685127 4.58131e-08 6356.45)
(-9.77106e+07 -1.18612e+07 0 -2.78975e+07 -5.59242e-12 -3.76824e+07)
(-9.59965e+07 -5.15308e+06 -1.11848e-11 -8.79211e+06 -1.67773e-11 -3.14366e+07)
(-9.48936e+07 -1.65379e+06 -2.23697e-11 -2.64044e+06 -2.23697e-11 -2.92602e+07)
(-9.42758e+07 -325355 6.7109e-11 -708592 -6.7109e-11 -2.84953e+07)
(-9.38886e+07 63956.4 -4.47393e-11 -74820.6 -4.47393e-11 -2.8189e+07)
(-9.36148e+07 81263.6 -4.47393e-11 116643 0 -2.80495e+07)
(-9.33805e+07 -24591.5 0 152812 4.47393e-11 -2.79683e+07)
(-9.31484e+07 -152429 8.94787e-11 136329 -1.34218e-10 -2.79036e+07)
(-9.29029e+07 -265087 -8.94787e-11 106196 -1.78957e-10 -2.7839e+07)
(-9.26403e+07 -352672 -8.94787e-11 76924.5 1.78957e-10 -2.7769e+07)
(-9.23618e+07 -416125 0 53112 8.94787e-11 -2.76926e+07)
(-9.20706e+07 -459953 0 35368 -2.68436e-10 -2.76106e+07)
(-9.177e+07 -489141 2.68436e-10 22855.2 7.15829e-10 -2.75241e+07)
(-9.14627e+07 -507999 8.94787e-11 14377.9 -1.78957e-10 -2.74345e+07)
(-9.11509e+07 -519855 -1.78957e-10 8816.8 -5.36872e-10 -2.73426e+07)
(-9.08361e+07 -527118 1.78957e-10 5269.56 -3.57915e-10 -2.72493e+07)
(-9.05196e+07 -531454 1.78957e-10 3064.87 -1.78957e-10 -2.7155e+07)
(-9.02018e+07 -533971 8.94787e-10 1729 1.78957e-10 -2.706e+07)
(-8.98834e+07 -535388 -1.78957e-10 940.535 3.57915e-10 -2.69647e+07)
(-8.95646e+07 -536156 -3.57915e-10 488.262 0 -2.68692e+07)
(-8.92455e+07 -536553 1.78957e-10 237.24 -3.57915e-10 -2.67736e+07)
(-8.89264e+07 -536745 0 103.458 2.14749e-09 -2.66779e+07)
(-8.86071e+07 -536828 -1.78957e-10 35.9334 1.78957e-09 -2.65821e+07)
(-8.82878e+07 -536855 1.78957e-10 4.52988 0 -2.64864e+07)
(-8.79686e+07 -536858 3.57915e-10 -8.07287 -7.15829e-10 -2.63906e+07)
(-8.76493e+07 -536851 -1.78957e-10 -11.5048 0 -2.62948e+07)
(-8.733e+07 -536841 -7.15829e-10 -10.9072 7.15829e-10 -2.6199e+07)
(-8.70107e+07 -536831 1.07374e-09 -8.88793 7.15829e-10 -2.61032e+07)
(-8.66914e+07 -536824 -1.78957e-10 -6.66451 -1.43166e-09 -2.60074e+07)
(-8.63721e+07 -536818 -3.57915e-10 -4.72746 0 -2.59116e+07)
(-8.60528e+07 -536814 1.43166e-09 -3.21874 3.57915e-09 -2.58158e+07)
(-8.57335e+07 -536812 -3.57915e-10 -2.12052 1.43166e-09 -2.572e+07)
(-8.54142e+07 -536810 0 -1.35574 -7.15829e-10 -2.56243e+07)
(-8.50949e+07 -536809 3.57915e-10 -0.844259 -7.15829e-10 -2.55285e+07)
(-8.47756e+07 -536808 3.57915e-10 -0.51317 1.43166e-09 -2.54327e+07)
(-8.44563e+07 -536808 2.14749e-09 -0.30247 4.29498e-09 -2.53369e+07)
(-8.4137e+07 -536807 1.07374e-09 -0.173474 7.15829e-10 -2.52411e+07)
(-8.38177e+07 -536807 7.15829e-10 -0.0971473 -1.43166e-09 -2.51453e+07)
(-8.34985e+07 -536807 0 -0.0510978 -5.72663e-09 -2.50495e+07)
(-8.31792e+07 -536807 3.57915e-10 -0.0256171 -1.43166e-09 -2.49537e+07)
(-8.28599e+07 -536807 7.15829e-10 -0.0126958 -1.43166e-09 -2.4858e+07)
(-8.25406e+07 -536807 0 -0.00450584 -1.43166e-09 -2.47622e+07)
(-8.22213e+07 -536807 -7.15829e-10 -0.000988171 0 -2.46664e+07)
(-8.1902e+07 -536807 -3.57915e-10 -0.00039392 2.86332e-09 -2.45706e+07)
(-8.15827e+07 -536807 7.15829e-10 0.00110722 -7.15829e-09 -2.44748e+07)
(-8.12634e+07 -536807 3.57915e-10 0.00116665 1.43166e-09 -2.4379e+07)
(-8.09441e+07 -536807 0 9.91598e-05 0 -2.42832e+07)
(-8.06248e+07 -536807 -1.43166e-09 0.000887878 -2.86332e-09 -2.41875e+07)
(-8.03055e+07 -536807 1.78957e-09 0.000721924 -2.86332e-09 -2.40917e+07)
(-7.99863e+07 -536807 -3.57915e-10 -0.00034824 -1.43166e-09 -2.39959e+07)
(-7.9667e+07 -536807 0 0.000478536 2.86332e-09 -2.39001e+07)
(-7.93477e+07 -536807 0 0.00040251 2.86332e-09 -2.38043e+07)
(-7.90284e+07 -536807 7.15829e-10 -0.000550881 -2.86332e-09 -2.37085e+07)
(-7.87091e+07 -536807 -1.78957e-09 0.000338726 -5.72663e-09 -2.36127e+07)
(-7.83898e+07 -536807 0 0.000318579 -2.86332e-09 -2.35169e+07)
(-7.80705e+07 -536807 2.14749e-09 -0.000596665 -5.72664e-09 -2.34212e+07)
(-7.77512e+07 -536807 -3.57915e-10 0.000306949 -8.58995e-09 -2.33254e+07)
(-7.74319e+07 -536807 -1.43166e-09 0.000296496 -2.86332e-09 -2.32296e+07)
(-7.71126e+07 -536807 1.07374e-09 -0.000617795 -2.86332e-09 -2.31338e+07)
(-7.67934e+07 -536807 2.5054e-09 0.00029641 2.29065e-08 -2.3038e+07)
(-7.64741e+07 -536807 -1.07374e-09 0.000297371 -5.72663e-09 -2.29422e+07)
(-7.61548e+07 -536807 0 -0.000578709 0 -2.28464e+07)
(-7.58355e+07 -536807 0 0.000293612 -2.86332e-09 -2.27506e+07)
(-7.55162e+07 -536807 0 0.000270385 0 -2.26549e+07)
(-7.51969e+07 -536807 0 -0.000618067 5.72664e-09 -2.25591e+07)
(-7.48776e+07 -536807 3.57915e-09 0.000262007 0 -2.24633e+07)
(-7.45583e+07 -536807 0 0.000266176 -2.86332e-09 -2.23675e+07)
(-7.4239e+07 -536807 -2.86332e-09 -0.000608396 -1.71799e-08 -2.22717e+07)
(-7.39197e+07 -536807 2.14749e-09 0.000269432 1.43166e-08 -2.21759e+07)
(-7.36004e+07 -536807 1.43166e-09 0.000279278 1.71799e-08 -2.20801e+07)
(-7.32812e+07 -536807 -7.15829e-10 -0.000566535 -2.00432e-08 -2.19843e+07)
(-7.29619e+07 -536807 7.15829e-10 0.000259258 5.72663e-09 -2.18886e+07)
(-7.26426e+07 -536807 0 0.000258196 -2.86332e-09 -2.17928e+07)
(-7.23233e+07 -536807 -7.15829e-10 -0.000595115 -2.86332e-09 -2.1697e+07)
(-7.2004e+07 -536807 0 0.00027772 -2.86332e-09 -2.16012e+07)
(-7.16847e+07 -536807 -7.15829e-10 0.000311803 2.86332e-09 -2.15054e+07)
(-7.13654e+07 -536807 7.15829e-10 -0.000501383 2.86332e-09 -2.14096e+07)
(-7.10461e+07 -536807 7.15829e-10 0.000336546 2.86332e-09 -2.13138e+07)
(-7.07268e+07 -536807 0 0.000308868 1.14533e-08 -2.12181e+07)
(-7.04075e+07 -536807 7.15829e-10 -0.000493497 3.43598e-08 -2.11223e+07)
(-7.00883e+07 -536807 0 0.000329077 5.72663e-09 -2.10265e+07)
(-6.9769e+07 -536807 -4.29498e-09 0.00029508 5.72663e-09 -2.09307e+07)
(-6.94497e+07 -536807 1.43166e-09 -0.000539586 1.14533e-08 -2.08349e+07)
(-6.91304e+07 -536807 0 0.000287708 -5.72663e-09 -2.07391e+07)
(-6.88111e+07 -536807 0 0.000285096 -5.72663e-09 -2.06433e+07)
(-6.84918e+07 -536807 1.43166e-09 -0.000522222 2.29065e-08 -2.05475e+07)
(-6.81725e+07 -536807 1.43166e-09 0.000278044 2.29065e-08 -2.04518e+07)
(-6.78532e+07 -536807 0 0.000243314 -1.14533e-08 -2.0356e+07)
(-6.75339e+07 -536807 2.14749e-09 -0.000542793 0 -2.02602e+07)
(-6.72146e+07 -536807 -7.15829e-10 0.000281196 -5.72663e-09 -2.01644e+07)
(-6.68953e+07 -536807 -2.14749e-09 0.00028725 0 -2.00686e+07)
(-6.65761e+07 -536807 7.15829e-10 -0.000518925 -5.72664e-09 -1.99728e+07)
(-6.62568e+07 -536807 7.15829e-10 0.000282899 1.71799e-08 -1.9877e+07)
(-6.59375e+07 -536807 -7.15829e-10 0.000285096 0 -1.97812e+07)
(-6.56182e+07 -536807 1.43166e-09 -0.000483461 1.14533e-08 -1.96855e+07)
(-6.52989e+07 -536807 7.15829e-10 0.000291418 -1.71799e-08 -1.95897e+07)
(-6.49796e+07 -536807 -2.14749e-09 0.00030113 1.14533e-08 -1.94939e+07)
(-6.46603e+07 -536807 2.14749e-09 -0.000483464 -5.72664e-09 -1.93981e+07)
(-6.4341e+07 -536807 0 0.000250686 -1.71799e-08 -1.93023e+07)
(-6.40217e+07 -536807 1.43166e-09 0.000241112 1.14533e-08 -1.92065e+07)
(-6.37024e+07 -536807 -2.14749e-09 -0.000513334 -2.29065e-08 -1.91107e+07)
(-6.33832e+07 -536807 -5.72663e-09 0.000272959 5.72663e-09 -1.90149e+07)
(-6.30639e+07 -536807 7.15829e-10 0.000315234 1.71799e-08 -1.89192e+07)
(-6.27446e+07 -536807 0 -0.000377871 -1.14533e-08 -1.88234e+07)
(-6.24253e+07 -536807 0 0.000342451 -1.71799e-08 -1.87276e+07)
(-6.2106e+07 -536807 7.15829e-10 0.000281524 -2.29065e-08 -1.86318e+07)
(-6.17867e+07 -536807 0 -0.00049895 -5.72664e-09 -1.8536e+07)
(-6.14674e+07 -536807 0 0.000227239 4.58131e-08 -1.84402e+07)
(-6.11481e+07 -536807 0 0.000222333 2.29065e-08 -1.83444e+07)
(-6.08288e+07 -536807 7.15829e-10 -0.000480857 4.00864e-08 -1.82486e+07)
(-6.05095e+07 -536807 1.43166e-09 0.000235427 -1.14533e-08 -1.81529e+07)
(-6.01902e+07 -536807 1.43166e-09 0.000269014 1.14533e-08 -1.80571e+07)
(-5.9871e+07 -536807 0 -0.000422858 -2.29065e-08 -1.79613e+07)
(-5.95517e+07 -536807 2.14749e-09 0.000237718 -1.14533e-08 -1.78655e+07)
(-5.92324e+07 -536807 7.15829e-10 0.000240881 -1.14533e-08 -1.77697e+07)
(-5.89131e+07 -536807 1.43166e-09 -0.000401646 -1.14533e-08 -1.76739e+07)
(-5.85938e+07 -536807 0 0.000296004 -1.14533e-08 -1.75781e+07)
(-5.82745e+07 -536807 2.14749e-09 0.000285555 2.29065e-08 -1.74824e+07)
(-5.79552e+07 -536807 -7.15829e-10 -0.000435453 -1.14533e-08 -1.73866e+07)
(-5.76359e+07 -536807 1.43166e-09 0.000255272 6.87196e-08 -1.72908e+07)
(-5.73166e+07 -536807 -2.86332e-09 0.000252243 -4.58131e-08 -1.7195e+07)
(-5.69973e+07 -536807 7.15829e-10 -0.000403065 3.43598e-08 -1.70992e+07)
(-5.66781e+07 -536807 -1.43166e-09 0.000267275 2.29065e-08 -1.70034e+07)
(-5.63588e+07 -536807 0 0.000213947 0 -1.69076e+07)
(-5.60395e+07 -536807 7.15829e-10 -0.000434767 -1.14533e-08 -1.68118e+07)
(-5.57202e+07 -536807 1.43166e-09 0.000258017 0 -1.67161e+07)
(-5.54009e+07 -536807 1.43166e-09 0.000279918 1.14533e-08 -1.66203e+07)
(-5.50816e+07 -536807 -1.43166e-09 -0.000352766 0 -1.65245e+07)
(-5.47623e+07 -536807 -7.15829e-10 0.000264611 0 -1.64287e+07)