/*--------------------------------*- C++ -*----------------------------------*\
| =========                 |                                                 |
| \\      /  F ield         | foam-extend: Open Source CFD                    |
|  \\    /   O peration     | Version:     4.0                                |
|   \\  /    A nd           | Web:         http://www.foam-extend.org         |
|    \\/     M anipulation  |                                                 |
\*---------------------------------------------------------------------------*/
FoamFile
{
    version     2.0;
    format      ascii;
    class       volScalarField;
    location    "1";
    object      sigmaHyd;
}
// * * * * * * * * * * * * * * * * * * * * * * * * * * * * * * * * * * * * * //

dimensions      [1 -1 -2 0 0 0 0];

internalField   nonuniform List<scalar> 
4500
(
-5.33428e+07
-4.5595e+07
-4.60425e+07
-4.63302e+07
-4.66218e+07
-4.68019e+07
-4.68891e+07
-4.69011e+07
-4.68568e+07
-4.67722e+07
-4.66597e+07
-4.65288e+07
-4.63859e+07
-4.62354e+07
-4.60803e+07
-4.59224e+07
-4.57628e+07
-4.56024e+07
-4.54414e+07
-4.52802e+07
-4.51188e+07
-4.49574e+07
-4.47959e+07
-4.46345e+07
-4.4473e+07
-4.43116e+07
-4.41502e+07
-4.39887e+07
-4.38273e+07
-4.36659e+07
-4.35045e+07
-4.3343e+07
-4.31816e+07
-4.30202e+07
-4.28588e+07
-4.26974e+07
-4.25359e+07
-4.23745e+07
-4.22131e+07
-4.20517e+07
-4.18903e+07
-4.17288e+07
-4.15674e+07
-4.1406e+07
-4.12446e+07
-4.10832e+07
-4.09218e+07
-4.07603e+07
-4.05989e+07
-4.04375e+07
-4.02761e+07
-4.01147e+07
-3.99532e+07
-3.97918e+07
-3.96304e+07
-3.9469e+07
-3.93076e+07
-3.91461e+07
-3.89847e+07
-3.88233e+07
-3.86619e+07
-3.85005e+07
-3.8339e+07
-3.81776e+07
-3.80162e+07
-3.78548e+07
-3.76934e+07
-3.7532e+07
-3.73705e+07
-3.72091e+07
-3.70477e+07
-3.68863e+07
-3.67249e+07
-3.65634e+07
-3.6402e+07
-3.62406e+07
-3.60792e+07
-3.59178e+07
-3.57563e+07
-3.55949e+07
-3.54335e+07
-3.52721e+07
-3.51107e+07
-3.49492e+07
-3.47878e+07
-3.46264e+07
-3.4465e+07
-3.43036e+07
-3.41422e+07
-3.39807e+07
-3.38193e+07
-3.36579e+07
-3.34965e+07
-3.33351e+07
-3.31736e+07
-3.30122e+07
-3.28508e+07
-3.26894e+07
-3.2528e+07
-3.23665e+07
-3.22051e+07
-3.20437e+07
-3.18823e+07
-3.17209e+07
-3.15594e+07
-3.1398e+07
-3.12366e+07
-3.10752e+07
-3.09138e+07
-3.07524e+07
-3.05909e+07
-3.04295e+07
-3.02681e+07
-3.01067e+07
-2.99453e+07
-2.97838e+07
-2.96224e+07
-2.9461e+07
-2.92996e+07
-2.91382e+07
-2.89767e+07
-2.88153e+07
-2.86539e+07
-2.84925e+07
-2.83311e+07
-2.81696e+07
-2.80082e+07
-2.78468e+07
-2.76854e+07
-2.7524e+07
-2.73626e+07
-2.72011e+07
-2.70397e+07
-2.68783e+07
-2.67169e+07
-2.65555e+07
-2.6394e+07
-2.62326e+07
-2.60712e+07
-2.59098e+07
-2.57484e+07
-2.55869e+07
-2.54255e+07
-2.52641e+07
-2.51027e+07
-2.49413e+07
-2.47798e+07
-2.46184e+07
-2.4457e+07
-2.42956e+07
-2.41342e+07
-2.39728e+07
-2.38113e+07
-2.36499e+07
-2.34885e+07
-2.33271e+07
-2.31657e+07
-2.30042e+07
-2.28428e+07
-2.26814e+07
-2.252e+07
-2.23586e+07
-2.21971e+07
-2.20357e+07
-2.18743e+07
-2.17129e+07
-2.15515e+07
-2.139e+07
-2.12286e+07
-2.10672e+07
-2.09058e+07
-2.07444e+07
-2.0583e+07
-2.04215e+07
-2.02601e+07
-2.00987e+07
-1.99373e+07
-1.97759e+07
-1.96144e+07
-1.9453e+07
-1.92916e+07
-1.91302e+07
-1.89688e+07
-1.88073e+07
-1.86459e+07
-1.84845e+07
-1.83231e+07
-1.81617e+07
-1.80002e+07
-1.78388e+07
-1.76774e+07
-1.7516e+07
-1.73546e+07
-1.71932e+07
-1.70317e+07
-1.68703e+07
-1.67089e+07
-1.65475e+07
-1.63861e+07
-1.62246e+07
-1.60632e+07
-1.59018e+07
-1.57404e+07
-1.5579e+07
-1.54175e+07
-1.52561e+07
-1.50947e+07
-1.49333e+07
-1.47719e+07
-1.46104e+07
-1.4449e+07
-1.42876e+07
-1.41262e+07
-1.39648e+07
-1.38034e+07
-1.36419e+07
-1.34805e+07
-1.33191e+07
-1.31577e+07
-1.29963e+07
-1.28348e+07
-1.26734e+07
-1.2512e+07
-1.23506e+07
-1.21892e+07
-1.20277e+07
-1.18663e+07
-1.17049e+07
-1.15435e+07
-1.13821e+07
-1.12206e+07
-1.10592e+07
-1.08978e+07
-1.07364e+07
-1.0575e+07
-1.04135e+07
-1.02521e+07
-1.00907e+07
-9.92929e+06
-9.76787e+06
-9.60645e+06
-9.44504e+06
-9.28362e+06
-9.1222e+06
-8.96078e+06
-8.79936e+06
-8.63794e+06
-8.47652e+06
-8.3151e+06
-8.15368e+06
-7.99226e+06
-7.83084e+06
-7.66943e+06
-7.50801e+06
-7.34659e+06
-7.18517e+06
-7.02375e+06
-6.86233e+06
-6.70091e+06
-6.53949e+06
-6.37807e+06
-6.21665e+06
-6.05524e+06
-5.89382e+06
-5.7324e+06
-5.57098e+06
-5.40956e+06
-5.24814e+06
-5.08672e+06
-4.9253e+06
-4.76388e+06
-4.60246e+06
-4.44104e+06
-4.27962e+06
-4.1182e+06
-3.95678e+06
-3.79536e+06
-3.63394e+06
-3.47252e+06
-3.31109e+06
-3.14967e+06
-2.98825e+06
-2.82685e+06
-2.66547e+06
-2.50415e+06
-2.34292e+06
-2.18186e+06
-2.02111e+06
-1.86087e+06
-1.70148e+06
-1.54346e+06
-1.38758e+06
-1.23499e+06
-1.08732e+06
-946790
-816220
-699317
-592539
-512190
9181.53
-5.44302e+07
-4.54084e+07
-4.22648e+07
-4.11599e+07
-4.07175e+07
-4.05159e+07
-4.03987e+07
-4.03052e+07
-4.02119e+07
-4.01108e+07
-4.00004e+07
-3.98819e+07
-3.97571e+07
-3.96276e+07
-3.94949e+07
-3.936e+07
-3.92238e+07
-3.90867e+07
-3.89491e+07
-3.88111e+07
-3.8673e+07
-3.85347e+07
-3.83964e+07
-3.82581e+07
-3.81197e+07
-3.79814e+07
-3.7843e+07
-3.77046e+07
-3.75663e+07
-3.74279e+07
-3.72895e+07
-3.71512e+07
-3.70128e+07
-3.68745e+07
-3.67361e+07
-3.65977e+07
-3.64594e+07
-3.6321e+07
-3.61827e+07
-3.60443e+07
-3.59059e+07
-3.57676e+07
-3.56292e+07
-3.54909e+07
-3.53525e+07
-3.52141e+07
-3.50758e+07
-3.49374e+07
-3.47991e+07
-3.46607e+07
-3.45224e+07
-3.4384e+07
-3.42456e+07
-3.41073e+07
-3.39689e+07
-3.38306e+07
-3.36922e+07
-3.35538e+07
-3.34155e+07
-3.32771e+07
-3.31388e+07
-3.30004e+07
-3.2862e+07
-3.27237e+07
-3.25853e+07
-3.2447e+07
-3.23086e+07
-3.21702e+07
-3.20319e+07
-3.18935e+07
-3.17552e+07
-3.16168e+07
-3.14784e+07
-3.13401e+07
-3.12017e+07
-3.10634e+07
-3.0925e+07
-3.07867e+07
-3.06483e+07
-3.05099e+07
-3.03716e+07
-3.02332e+07
-3.00949e+07
-2.99565e+07
-2.98181e+07
-2.96798e+07
-2.95414e+07
-2.94031e+07
-2.92647e+07
-2.91263e+07
-2.8988e+07
-2.88496e+07
-2.87113e+07
-2.85729e+07
-2.84345e+07
-2.82962e+07
-2.81578e+07
-2.80195e+07
-2.78811e+07
-2.77428e+07
-2.76044e+07
-2.7466e+07
-2.73277e+07
-2.71893e+07
-2.7051e+07
-2.69126e+07
-2.67742e+07
-2.66359e+07
-2.64975e+07
-2.63592e+07
-2.62208e+07
-2.60824e+07
-2.59441e+07
-2.58057e+07
-2.56674e+07
-2.5529e+07
-2.53906e+07
-2.52523e+07
-2.51139e+07
-2.49756e+07
-2.48372e+07
-2.46988e+07
-2.45605e+07
-2.44221e+07
-2.42838e+07
-2.41454e+07
-2.40071e+07
-2.38687e+07
-2.37303e+07
-2.3592e+07
-2.34536e+07
-2.33153e+07
-2.31769e+07
-2.30385e+07
-2.29002e+07
-2.27618e+07
-2.26235e+07
-2.24851e+07
-2.23467e+07
-2.22084e+07
-2.207e+07
-2.19317e+07
-2.17933e+07
-2.16549e+07
-2.15166e+07
-2.13782e+07
-2.12399e+07
-2.11015e+07
-2.09632e+07
-2.08248e+07
-2.06864e+07
-2.05481e+07
-2.04097e+07
-2.02714e+07
-2.0133e+07
-1.99946e+07
-1.98563e+07
-1.97179e+07
-1.95796e+07
-1.94412e+07
-1.93028e+07
-1.91645e+07
-1.90261e+07
-1.88878e+07
-1.87494e+07
-1.8611e+07
-1.84727e+07
-1.83343e+07
-1.8196e+07
-1.80576e+07
-1.79192e+07
-1.77809e+07
-1.76425e+07
-1.75042e+07
-1.73658e+07
-1.72275e+07
-1.70891e+07
-1.69507e+07
-1.68124e+07
-1.6674e+07
-1.65357e+07
-1.63973e+07
-1.62589e+07
-1.61206e+07
-1.59822e+07
-1.58439e+07
-1.57055e+07
-1.55671e+07
-1.54288e+07
-1.52904e+07
-1.51521e+07
-1.50137e+07
-1.48753e+07
-1.4737e+07
-1.45986e+07
-1.44603e+07
-1.43219e+07
-1.41835e+07
-1.40452e+07
-1.39068e+07
-1.37685e+07
-1.36301e+07
-1.34918e+07
-1.33534e+07
-1.3215e+07
-1.30767e+07
-1.29383e+07
-1.28e+07
-1.26616e+07
-1.25232e+07
-1.23849e+07
-1.22465e+07
-1.21082e+07
-1.19698e+07
-1.18314e+07
-1.16931e+07
-1.15547e+07
-1.14164e+07
-1.1278e+07
-1.11396e+07
-1.10013e+07
-1.08629e+07
-1.07246e+07
-1.05862e+07
-1.04479e+07
-1.03095e+07
-1.01711e+07
-1.00328e+07
-9.89441e+06
-9.75606e+06
-9.6177e+06
-9.47934e+06
-9.34098e+06
-9.20262e+06
-9.06426e+06
-8.9259e+06
-8.78754e+06
-8.64918e+06
-8.51082e+06
-8.37246e+06
-8.2341e+06
-8.09574e+06
-7.95739e+06
-7.81903e+06
-7.68067e+06
-7.54231e+06
-7.40395e+06
-7.26559e+06
-7.12723e+06
-6.98887e+06
-6.85051e+06
-6.71215e+06
-6.57379e+06
-6.43543e+06
-6.29708e+06
-6.15872e+06
-6.02036e+06
-5.882e+06
-5.74364e+06
-5.60528e+06
-5.46692e+06
-5.32856e+06
-5.1902e+06
-5.05184e+06
-4.91348e+06
-4.77512e+06
-4.63676e+06
-4.49841e+06
-4.36005e+06
-4.22169e+06
-4.08333e+06
-3.94497e+06
-3.80661e+06
-3.66825e+06
-3.52989e+06
-3.39153e+06
-3.25317e+06
-3.11481e+06
-2.97645e+06
-2.8381e+06
-2.69975e+06
-2.56141e+06
-2.42309e+06
-2.28481e+06
-2.14659e+06
-2.00846e+06
-1.87049e+06
-1.73277e+06
-1.59541e+06
-1.45862e+06
-1.32259e+06
-1.18761e+06
-1.05388e+06
-921401
-789443
-655387
-511415
-335493
-56296.7
505112
-4.3659e+07
-3.9791e+07
-3.69785e+07
-3.54339e+07
-3.46124e+07
-3.41594e+07
-3.38903e+07
-3.37116e+07
-3.35759e+07
-3.34591e+07
-3.33494e+07
-3.32414e+07
-3.31328e+07
-3.30229e+07
-3.29116e+07
-3.27991e+07
-3.26856e+07
-3.25716e+07
-3.24571e+07
-3.23422e+07
-3.22272e+07
-3.21121e+07
-3.19969e+07
-3.18817e+07
-3.17664e+07
-3.16511e+07
-3.15358e+07
-3.14205e+07
-3.13052e+07
-3.11899e+07
-3.10746e+07
-3.09593e+07
-3.0844e+07
-3.07287e+07
-3.06134e+07
-3.04981e+07
-3.03828e+07
-3.02675e+07
-3.01522e+07
-3.00369e+07
-2.99216e+07
-2.98063e+07
-2.9691e+07
-2.95757e+07
-2.94604e+07
-2.93451e+07
-2.92298e+07
-2.91145e+07
-2.89992e+07
-2.88839e+07
-2.87686e+07
-2.86533e+07
-2.8538e+07
-2.84227e+07
-2.83074e+07
-2.81921e+07
-2.80768e+07
-2.79615e+07
-2.78462e+07
-2.77309e+07
-2.76156e+07
-2.75003e+07
-2.7385e+07
-2.72697e+07
-2.71544e+07
-2.70391e+07
-2.69238e+07
-2.68085e+07
-2.66932e+07
-2.65779e+07
-2.64626e+07
-2.63473e+07
-2.6232e+07
-2.61167e+07
-2.60014e+07
-2.58861e+07
-2.57708e+07
-2.56555e+07
-2.55402e+07
-2.54249e+07
-2.53096e+07
-2.51943e+07
-2.5079e+07
-2.49637e+07
-2.48484e+07
-2.47332e+07
-2.46179e+07
-2.45026e+07
-2.43873e+07
-2.4272e+07
-2.41567e+07
-2.40414e+07
-2.39261e+07
-2.38108e+07
-2.36955e+07
-2.35802e+07
-2.34649e+07
-2.33496e+07
-2.32343e+07
-2.3119e+07
-2.30037e+07
-2.28884e+07
-2.27731e+07
-2.26578e+07
-2.25425e+07
-2.24272e+07
-2.23119e+07
-2.21966e+07
-2.20813e+07
-2.1966e+07
-2.18507e+07
-2.17354e+07
-2.16201e+07
-2.15048e+07
-2.13895e+07
-2.12742e+07
-2.11589e+07
-2.10436e+07
-2.09283e+07
-2.0813e+07
-2.06977e+07
-2.05824e+07
-2.04671e+07
-2.03518e+07
-2.02365e+07
-2.01212e+07
-2.00059e+07
-1.98906e+07
-1.97753e+07
-1.966e+07
-1.95447e+07
-1.94294e+07
-1.93141e+07
-1.91988e+07
-1.90835e+07
-1.89682e+07
-1.88529e+07
-1.87376e+07
-1.86223e+07
-1.8507e+07
-1.83917e+07
-1.82764e+07
-1.81611e+07
-1.80458e+07
-1.79305e+07
-1.78152e+07
-1.76999e+07
-1.75846e+07
-1.74693e+07
-1.7354e+07
-1.72387e+07
-1.71234e+07
-1.70081e+07
-1.68928e+07
-1.67775e+07
-1.66622e+07
-1.65469e+07
-1.64316e+07
-1.63163e+07
-1.6201e+07
-1.60857e+07
-1.59704e+07
-1.58551e+07
-1.57398e+07
-1.56245e+07
-1.55092e+07
-1.53939e+07
-1.52786e+07
-1.51633e+07
-1.5048e+07
-1.49327e+07
-1.48174e+07
-1.47021e+07
-1.45868e+07
-1.44715e+07
-1.43562e+07
-1.42409e+07
-1.41256e+07
-1.40103e+07
-1.3895e+07
-1.37797e+07
-1.36644e+07
-1.35491e+07
-1.34338e+07
-1.33185e+07
-1.32032e+07
-1.30879e+07
-1.29726e+07
-1.28573e+07
-1.2742e+07
-1.26267e+07
-1.25114e+07
-1.23961e+07
-1.22808e+07
-1.21655e+07
-1.20502e+07
-1.19349e+07
-1.18196e+07
-1.17043e+07
-1.1589e+07
-1.14737e+07
-1.13584e+07
-1.12431e+07
-1.11278e+07
-1.10125e+07
-1.08972e+07
-1.07819e+07
-1.06666e+07
-1.05513e+07
-1.0436e+07
-1.03207e+07
-1.02054e+07
-1.00901e+07
-9.97484e+06
-9.85954e+06
-9.74424e+06
-9.62894e+06
-9.51364e+06
-9.39834e+06
-9.28304e+06
-9.16774e+06
-9.05244e+06
-8.93714e+06
-8.82184e+06
-8.70654e+06
-8.59124e+06
-8.47594e+06
-8.36064e+06
-8.24535e+06
-8.13005e+06
-8.01475e+06
-7.89945e+06
-7.78415e+06
-7.66885e+06
-7.55355e+06
-7.43825e+06
-7.32295e+06
-7.20765e+06
-7.09235e+06
-6.97705e+06
-6.86175e+06
-6.74645e+06
-6.63115e+06
-6.51586e+06
-6.40056e+06
-6.28526e+06
-6.16996e+06
-6.05466e+06
-5.93936e+06
-5.82406e+06
-5.70876e+06
-5.59346e+06
-5.47816e+06
-5.36286e+06
-5.24756e+06
-5.13226e+06
-5.01696e+06
-4.90166e+06
-4.78637e+06
-4.67107e+06
-4.55577e+06
-4.44047e+06
-4.32517e+06
-4.20987e+06
-4.09457e+06
-3.97927e+06
-3.86397e+06
-3.74867e+06
-3.63337e+06
-3.51807e+06
-3.40277e+06
-3.28747e+06
-3.17217e+06
-3.05687e+06
-2.94158e+06
-2.82628e+06
-2.71098e+06
-2.59568e+06
-2.48039e+06
-2.3651e+06
-2.24982e+06
-2.13455e+06
-2.01931e+06
-1.90409e+06
-1.78893e+06
-1.67385e+06
-1.55888e+06
-1.44405e+06
-1.32941e+06
-1.21498e+06
-1.10069e+06
-986354
-871427
-754671
-633443
-502260
-349959
-154462
121358
498326
-3.47244e+07
-3.23793e+07
-3.04051e+07
-2.90348e+07
-2.81683e+07
-2.76339e+07
-2.72991e+07
-2.7079e+07
-2.69229e+07
-2.68012e+07
-2.66972e+07
-2.66017e+07
-2.651e+07
-2.64196e+07
-2.63294e+07
-2.6239e+07
-2.61481e+07
-2.60569e+07
-2.59653e+07
-2.58736e+07
-2.57816e+07
-2.56896e+07
-2.55974e+07
-2.55053e+07
-2.54131e+07
-2.53209e+07
-2.52286e+07
-2.51364e+07
-2.50442e+07
-2.49519e+07
-2.48597e+07
-2.47675e+07
-2.46752e+07
-2.4583e+07
-2.44907e+07
-2.43985e+07
-2.43063e+07
-2.4214e+07
-2.41218e+07
-2.40295e+07
-2.39373e+07
-2.38451e+07
-2.37528e+07
-2.36606e+07
-2.35683e+07
-2.34761e+07
-2.33839e+07
-2.32916e+07
-2.31994e+07
-2.31071e+07
-2.30149e+07
-2.29227e+07
-2.28304e+07
-2.27382e+07
-2.26459e+07
-2.25537e+07
-2.24615e+07
-2.23692e+07
-2.2277e+07
-2.21847e+07
-2.20925e+07
-2.20003e+07
-2.1908e+07
-2.18158e+07
-2.17235e+07
-2.16313e+07
-2.15391e+07
-2.14468e+07
-2.13546e+07
-2.12624e+07
-2.11701e+07
-2.10779e+07
-2.09856e+07
-2.08934e+07
-2.08012e+07
-2.07089e+07
-2.06167e+07
-2.05244e+07
-2.04322e+07
-2.034e+07
-2.02477e+07
-2.01555e+07
-2.00632e+07
-1.9971e+07
-1.98788e+07
-1.97865e+07
-1.96943e+07
-1.9602e+07
-1.95098e+07
-1.94176e+07
-1.93253e+07
-1.92331e+07
-1.91408e+07
-1.90486e+07
-1.89564e+07
-1.88641e+07
-1.87719e+07
-1.86796e+07
-1.85874e+07
-1.84952e+07
-1.84029e+07
-1.83107e+07
-1.82184e+07
-1.81262e+07
-1.8034e+07
-1.79417e+07
-1.78495e+07
-1.77573e+07
-1.7665e+07
-1.75728e+07
-1.74805e+07
-1.73883e+07
-1.72961e+07
-1.72038e+07
-1.71116e+07
-1.70193e+07
-1.69271e+07
-1.68349e+07
-1.67426e+07
-1.66504e+07
-1.65581e+07
-1.64659e+07
-1.63737e+07
-1.62814e+07
-1.61892e+07
-1.60969e+07
-1.60047e+07
-1.59125e+07
-1.58202e+07
-1.5728e+07
-1.56357e+07
-1.55435e+07
-1.54513e+07
-1.5359e+07
-1.52668e+07
-1.51745e+07
-1.50823e+07
-1.49901e+07
-1.48978e+07
-1.48056e+07
-1.47133e+07
-1.46211e+07
-1.45289e+07
-1.44366e+07
-1.43444e+07
-1.42522e+07
-1.41599e+07
-1.40677e+07
-1.39754e+07
-1.38832e+07
-1.3791e+07
-1.36987e+07
-1.36065e+07
-1.35142e+07
-1.3422e+07
-1.33298e+07
-1.32375e+07
-1.31453e+07
-1.3053e+07
-1.29608e+07
-1.28686e+07
-1.27763e+07
-1.26841e+07
-1.25918e+07
-1.24996e+07
-1.24074e+07
-1.23151e+07
-1.22229e+07
-1.21306e+07
-1.20384e+07
-1.19462e+07
-1.18539e+07
-1.17617e+07
-1.16694e+07
-1.15772e+07
-1.1485e+07
-1.13927e+07
-1.13005e+07
-1.12082e+07
-1.1116e+07
-1.10238e+07
-1.09315e+07
-1.08393e+07
-1.07471e+07
-1.06548e+07
-1.05626e+07
-1.04703e+07
-1.03781e+07
-1.02859e+07
-1.01936e+07
-1.01014e+07
-1.00091e+07
-9.9169e+06
-9.82466e+06
-9.73242e+06
-9.64018e+06
-9.54794e+06
-9.4557e+06
-9.36346e+06
-9.27122e+06
-9.17898e+06
-9.08674e+06
-8.9945e+06
-8.90226e+06
-8.81002e+06
-8.71778e+06
-8.62554e+06
-8.53331e+06
-8.44107e+06
-8.34883e+06
-8.25659e+06
-8.16435e+06
-8.07211e+06
-7.97987e+06
-7.88763e+06
-7.79539e+06
-7.70315e+06
-7.61091e+06
-7.51867e+06
-7.42643e+06
-7.33419e+06
-7.24195e+06
-7.14971e+06
-7.05747e+06
-6.96523e+06
-6.87299e+06
-6.78076e+06
-6.68852e+06
-6.59628e+06
-6.50404e+06
-6.4118e+06
-6.31956e+06
-6.22732e+06
-6.13508e+06
-6.04284e+06
-5.9506e+06
-5.85836e+06
-5.76612e+06
-5.67388e+06
-5.58164e+06
-5.4894e+06
-5.39716e+06
-5.30492e+06
-5.21268e+06
-5.12044e+06
-5.02821e+06
-4.93597e+06
-4.84373e+06
-4.75149e+06
-4.65925e+06
-4.56701e+06
-4.47477e+06
-4.38253e+06
-4.29029e+06
-4.19805e+06
-4.10581e+06
-4.01357e+06
-3.92133e+06
-3.82909e+06
-3.73685e+06
-3.64461e+06
-3.55237e+06
-3.46013e+06
-3.36789e+06
-3.27566e+06
-3.18342e+06
-3.09118e+06
-2.99894e+06
-2.9067e+06
-2.81446e+06
-2.72222e+06
-2.62998e+06
-2.53774e+06
-2.4455e+06
-2.35326e+06
-2.26102e+06
-2.16879e+06
-2.07655e+06
-1.98432e+06
-1.89209e+06
-1.79987e+06
-1.70767e+06
-1.61548e+06
-1.52333e+06
-1.4312e+06
-1.33913e+06
-1.24712e+06
-1.15515e+06
-1.0632e+06
-971158
-878781
-785574
-690568
-591952
-486461
-368403
-228371
-52534
173840
454845
-2.60421e+07
-2.45066e+07
-2.31618e+07
-2.21274e+07
-2.14019e+07
-2.09175e+07
-2.0599e+07
-2.03862e+07
-2.02378e+07
-2.01269e+07
-2.00371e+07
-1.99587e+07
-1.98861e+07
-1.98163e+07
-1.97476e+07
-1.96793e+07
-1.96109e+07
-1.95425e+07
-1.94738e+07
-1.9405e+07
-1.93361e+07
-1.92671e+07
-1.9198e+07
-1.91289e+07
-1.90598e+07
-1.89906e+07
-1.89215e+07
-1.88523e+07
-1.87831e+07
-1.87139e+07
-1.86448e+07
-1.85756e+07
-1.85064e+07
-1.84372e+07
-1.83681e+07
-1.82989e+07
-1.82297e+07
-1.81605e+07
-1.80913e+07
-1.80222e+07
-1.7953e+07
-1.78838e+07
-1.78146e+07
-1.77454e+07
-1.76763e+07
-1.76071e+07
-1.75379e+07
-1.74687e+07
-1.73995e+07
-1.73304e+07
-1.72612e+07
-1.7192e+07
-1.71228e+07
-1.70536e+07
-1.69845e+07
-1.69153e+07
-1.68461e+07
-1.67769e+07
-1.67077e+07
-1.66386e+07
-1.65694e+07
-1.65002e+07
-1.6431e+07
-1.63618e+07
-1.62927e+07
-1.62235e+07
-1.61543e+07
-1.60851e+07
-1.60159e+07
-1.59468e+07
-1.58776e+07
-1.58084e+07
-1.57392e+07
-1.567e+07
-1.56009e+07
-1.55317e+07
-1.54625e+07
-1.53933e+07
-1.53241e+07
-1.5255e+07
-1.51858e+07
-1.51166e+07
-1.50474e+07
-1.49782e+07
-1.49091e+07
-1.48399e+07
-1.47707e+07
-1.47015e+07
-1.46324e+07
-1.45632e+07
-1.4494e+07
-1.44248e+07
-1.43556e+07
-1.42865e+07
-1.42173e+07
-1.41481e+07
-1.40789e+07
-1.40097e+07
-1.39406e+07
-1.38714e+07
-1.38022e+07
-1.3733e+07
-1.36638e+07
-1.35947e+07
-1.35255e+07
-1.34563e+07
-1.33871e+07
-1.33179e+07
-1.32488e+07
-1.31796e+07
-1.31104e+07
-1.30412e+07
-1.2972e+07
-1.29029e+07
-1.28337e+07
-1.27645e+07
-1.26953e+07
-1.26261e+07
-1.2557e+07
-1.24878e+07
-1.24186e+07
-1.23494e+07
-1.22802e+07
-1.22111e+07
-1.21419e+07
-1.20727e+07
-1.20035e+07
-1.19343e+07
-1.18652e+07
-1.1796e+07
-1.17268e+07
-1.16576e+07
-1.15884e+07
-1.15193e+07
-1.14501e+07
-1.13809e+07
-1.13117e+07
-1.12426e+07
-1.11734e+07
-1.11042e+07
-1.1035e+07
-1.09658e+07
-1.08967e+07
-1.08275e+07
-1.07583e+07
-1.06891e+07
-1.06199e+07
-1.05508e+07
-1.04816e+07
-1.04124e+07
-1.03432e+07
-1.0274e+07
-1.02049e+07
-1.01357e+07
-1.00665e+07
-9.99732e+06
-9.92814e+06
-9.85896e+06
-9.78978e+06
-9.7206e+06
-9.65142e+06
-9.58224e+06
-9.51306e+06
-9.44388e+06
-9.3747e+06
-9.30552e+06
-9.23634e+06
-9.16716e+06
-9.09798e+06
-9.0288e+06
-8.95962e+06
-8.89044e+06
-8.82126e+06
-8.75209e+06
-8.68291e+06
-8.61373e+06
-8.54455e+06
-8.47537e+06
-8.40619e+06
-8.33701e+06
-8.26783e+06
-8.19865e+06
-8.12947e+06
-8.06029e+06
-7.99111e+06
-7.92193e+06
-7.85275e+06
-7.78357e+06
-7.71439e+06
-7.64521e+06
-7.57603e+06
-7.50685e+06
-7.43767e+06
-7.36849e+06
-7.29931e+06
-7.23013e+06
-7.16095e+06
-7.09177e+06
-7.0226e+06
-6.95342e+06
-6.88424e+06
-6.81506e+06
-6.74588e+06
-6.6767e+06
-6.60752e+06
-6.53834e+06
-6.46916e+06
-6.39998e+06
-6.3308e+06
-6.26162e+06
-6.19244e+06
-6.12326e+06
-6.05408e+06
-5.9849e+06
-5.91572e+06
-5.84654e+06
-5.77736e+06
-5.70818e+06
-5.639e+06
-5.56982e+06
-5.50064e+06
-5.43146e+06
-5.36228e+06
-5.29311e+06
-5.22393e+06
-5.15475e+06
-5.08557e+06
-5.01639e+06
-4.94721e+06
-4.87803e+06
-4.80885e+06
-4.73967e+06
-4.67049e+06
-4.60131e+06
-4.53213e+06
-4.46295e+06
-4.39377e+06
-4.32459e+06
-4.25541e+06
-4.18623e+06
-4.11705e+06
-4.04787e+06
-3.97869e+06
-3.90951e+06
-3.84033e+06
-3.77115e+06
-3.70197e+06
-3.63279e+06
-3.56362e+06
-3.49444e+06
-3.42526e+06
-3.35608e+06
-3.2869e+06
-3.21772e+06
-3.14854e+06
-3.07936e+06
-3.01018e+06
-2.941e+06
-2.87182e+06
-2.80264e+06
-2.73346e+06
-2.66428e+06
-2.5951e+06
-2.52592e+06
-2.45674e+06
-2.38756e+06
-2.31838e+06
-2.2492e+06
-2.18002e+06
-2.11084e+06
-2.04166e+06
-1.97248e+06
-1.90331e+06
-1.83413e+06
-1.76495e+06
-1.69577e+06
-1.62659e+06
-1.55742e+06
-1.48825e+06
-1.41908e+06
-1.34992e+06
-1.28077e+06
-1.21163e+06
-1.14252e+06
-1.07343e+06
-1.00436e+06
-935303
-866228
-797058
-727629
-657624
-586453
-513070
-435687
-351379
-255626
-142051
-3070.56
167455
369820
-1.7375e+07
-1.64265e+07
-1.55818e+07
-1.49004e+07
-1.43942e+07
-1.40388e+07
-1.37965e+07
-1.36318e+07
-1.35169e+07
-1.34326e+07
-1.33664e+07
-1.33103e+07
-1.32597e+07
-1.32119e+07
-1.31655e+07
-1.31197e+07
-1.3074e+07
-1.30283e+07
-1.29825e+07
-1.29366e+07
-1.28907e+07
-1.28447e+07
-1.27987e+07
-1.27526e+07
-1.27065e+07
-1.26604e+07
-1.26143e+07
-1.25682e+07
-1.25221e+07
-1.2476e+07
-1.24298e+07
-1.23837e+07
-1.23376e+07
-1.22915e+07
-1.22454e+07
-1.21992e+07
-1.21531e+07
-1.2107e+07
-1.20609e+07
-1.20148e+07
-1.19686e+07
-1.19225e+07
-1.18764e+07
-1.18303e+07
-1.17842e+07
-1.1738e+07
-1.16919e+07
-1.16458e+07
-1.15997e+07
-1.15536e+07
-1.15075e+07
-1.14613e+07
-1.14152e+07
-1.13691e+07
-1.1323e+07
-1.12769e+07
-1.12307e+07
-1.11846e+07
-1.11385e+07
-1.10924e+07
-1.10463e+07
-1.10001e+07
-1.0954e+07
-1.09079e+07
-1.08618e+07
-1.08157e+07
-1.07695e+07
-1.07234e+07
-1.06773e+07
-1.06312e+07
-1.05851e+07
-1.05389e+07
-1.04928e+07
-1.04467e+07
-1.04006e+07
-1.03545e+07
-1.03083e+07
-1.02622e+07
-1.02161e+07
-1.017e+07
-1.01239e+07
-1.00777e+07
-1.00316e+07
-9.9855e+06
-9.93938e+06
-9.89326e+06
-9.84714e+06
-9.80102e+06
-9.7549e+06
-9.70878e+06
-9.66266e+06
-9.61654e+06
-9.57042e+06
-9.5243e+06
-9.47818e+06
-9.43206e+06
-9.38594e+06
-9.33982e+06
-9.2937e+06
-9.24758e+06
-9.20146e+06
-9.15534e+06
-9.10922e+06
-9.0631e+06
-9.01699e+06
-8.97087e+06
-8.92475e+06
-8.87863e+06
-8.83251e+06
-8.78639e+06
-8.74027e+06
-8.69415e+06
-8.64803e+06
-8.60191e+06
-8.55579e+06
-8.50967e+06
-8.46355e+06
-8.41743e+06
-8.37131e+06
-8.32519e+06
-8.27907e+06
-8.23295e+06
-8.18683e+06
-8.14071e+06
-8.09459e+06
-8.04847e+06
-8.00235e+06
-7.95623e+06
-7.91011e+06
-7.86399e+06
-7.81787e+06
-7.77175e+06
-7.72563e+06
-7.67951e+06
-7.63339e+06
-7.58727e+06
-7.54115e+06
-7.49503e+06
-7.44891e+06
-7.40279e+06
-7.35667e+06
-7.31055e+06
-7.26444e+06
-7.21832e+06
-7.1722e+06
-7.12608e+06
-7.07996e+06
-7.03384e+06
-6.98772e+06
-6.9416e+06
-6.89548e+06
-6.84936e+06
-6.80324e+06
-6.75712e+06
-6.711e+06
-6.66488e+06
-6.61876e+06
-6.57264e+06
-6.52652e+06
-6.4804e+06
-6.43428e+06
-6.38816e+06
-6.34204e+06
-6.29592e+06
-6.2498e+06
-6.20368e+06
-6.15756e+06
-6.11144e+06
-6.06532e+06
-6.0192e+06
-5.97308e+06
-5.92696e+06
-5.88084e+06
-5.83472e+06
-5.7886e+06
-5.74248e+06
-5.69636e+06
-5.65024e+06
-5.60412e+06
-5.55801e+06
-5.51189e+06
-5.46577e+06
-5.41965e+06
-5.37353e+06
-5.32741e+06
-5.28129e+06
-5.23517e+06
-5.18905e+06
-5.14293e+06
-5.09681e+06
-5.05069e+06
-5.00457e+06
-4.95845e+06
-4.91233e+06
-4.86621e+06
-4.82009e+06
-4.77397e+06
-4.72785e+06
-4.68173e+06
-4.63561e+06
-4.58949e+06
-4.54337e+06
-4.49725e+06
-4.45113e+06
-4.40501e+06
-4.35889e+06
-4.31277e+06
-4.26665e+06
-4.22053e+06
-4.17441e+06
-4.12829e+06
-4.08217e+06
-4.03605e+06
-3.98993e+06
-3.94381e+06
-3.89769e+06
-3.85157e+06
-3.80546e+06
-3.75934e+06
-3.71322e+06
-3.6671e+06
-3.62098e+06
-3.57486e+06
-3.52874e+06
-3.48262e+06
-3.4365e+06
-3.39038e+06
-3.34426e+06
-3.29814e+06
-3.25202e+06
-3.2059e+06
-3.15978e+06
-3.11366e+06
-3.06754e+06
-3.02142e+06
-2.9753e+06
-2.92918e+06
-2.88306e+06
-2.83694e+06
-2.79082e+06
-2.7447e+06
-2.69858e+06
-2.65246e+06
-2.60634e+06
-2.56022e+06
-2.5141e+06
-2.46798e+06
-2.42186e+06
-2.37574e+06
-2.32962e+06
-2.2835e+06
-2.23738e+06
-2.19126e+06
-2.14514e+06
-2.09903e+06
-2.05291e+06
-2.00679e+06
-1.96067e+06
-1.91455e+06
-1.86843e+06
-1.82231e+06
-1.77619e+06
-1.73007e+06
-1.68395e+06
-1.63783e+06
-1.59171e+06
-1.54559e+06
-1.49947e+06
-1.45335e+06
-1.40723e+06
-1.36111e+06
-1.31499e+06
-1.26887e+06
-1.22275e+06
-1.17663e+06
-1.13051e+06
-1.0844e+06
-1.03828e+06
-992166
-946056
-899952
-853854
-807766
-761689
-715624
-669566
-623499
-577386
-531147
-484631
-437553
-389414
-339371
-286058
-227386
-160388
-81309.3
13752.3
127500
259976
-8.69276e+06
-8.23744e+06
-7.82853e+06
-7.49136e+06
-7.23362e+06
-7.04765e+06
-6.91814e+06
-6.82896e+06
-6.76662e+06
-6.7212e+06
-6.68599e+06
-6.65668e+06
-6.63065e+06
-6.60636e+06
-6.58293e+06
-6.55989e+06
-6.53699e+06
-6.51411e+06
-6.49122e+06
-6.46829e+06
-6.44533e+06
-6.42234e+06
-6.39933e+06
-6.3763e+06
-6.35325e+06
-6.33021e+06
-6.30715e+06
-6.2841e+06
-6.26104e+06
-6.23798e+06
-6.21492e+06
-6.19186e+06
-6.1688e+06
-6.14574e+06
-6.12268e+06
-6.09962e+06
-6.07656e+06
-6.0535e+06
-6.03044e+06
-6.00738e+06
-5.98432e+06
-5.96126e+06
-5.9382e+06
-5.91514e+06
-5.89208e+06
-5.86902e+06
-5.84596e+06
-5.8229e+06
-5.79985e+06
-5.77679e+06
-5.75373e+06
-5.73067e+06
-5.70761e+06
-5.68455e+06
-5.66149e+06
-5.63843e+06
-5.61537e+06
-5.59231e+06
-5.56925e+06
-5.54619e+06
-5.52313e+06
-5.50007e+06
-5.47701e+06
-5.45395e+06
-5.43089e+06
-5.40783e+06
-5.38477e+06
-5.36171e+06
-5.33865e+06
-5.31559e+06
-5.29253e+06
-5.26947e+06
-5.24641e+06
-5.22335e+06
-5.20029e+06
-5.17723e+06
-5.15417e+06
-5.13111e+06
-5.10805e+06
-5.08499e+06
-5.06193e+06
-5.03887e+06
-5.01581e+06
-4.99275e+06
-4.96969e+06
-4.94663e+06
-4.92357e+06
-4.90051e+06
-4.87745e+06
-4.85439e+06
-4.83133e+06
-4.80827e+06
-4.78521e+06
-4.76215e+06
-4.73909e+06
-4.71603e+06
-4.69297e+06
-4.66991e+06
-4.64685e+06
-4.62379e+06
-4.60073e+06
-4.57767e+06
-4.55461e+06
-4.53155e+06
-4.50849e+06
-4.48543e+06
-4.46237e+06
-4.43931e+06
-4.41625e+06
-4.39319e+06
-4.37013e+06
-4.34707e+06
-4.32401e+06
-4.30095e+06
-4.27789e+06
-4.25483e+06
-4.23177e+06
-4.20871e+06
-4.18565e+06
-4.16259e+06
-4.13953e+06
-4.11647e+06
-4.09341e+06
-4.07036e+06
-4.0473e+06
-4.02424e+06
-4.00118e+06
-3.97812e+06
-3.95506e+06
-3.932e+06
-3.90894e+06
-3.88588e+06
-3.86282e+06
-3.83976e+06
-3.8167e+06
-3.79364e+06
-3.77058e+06
-3.74752e+06
-3.72446e+06
-3.7014e+06
-3.67834e+06
-3.65528e+06
-3.63222e+06
-3.60916e+06
-3.5861e+06
-3.56304e+06
-3.53998e+06
-3.51692e+06
-3.49386e+06
-3.4708e+06
-3.44774e+06
-3.42468e+06
-3.40162e+06
-3.37856e+06
-3.3555e+06
-3.33244e+06
-3.30938e+06
-3.28632e+06
-3.26326e+06
-3.2402e+06
-3.21714e+06
-3.19408e+06
-3.17102e+06
-3.14796e+06
-3.1249e+06
-3.10184e+06
-3.07878e+06
-3.05572e+06
-3.03266e+06
-3.0096e+06
-2.98654e+06
-2.96348e+06
-2.94042e+06
-2.91736e+06
-2.8943e+06
-2.87124e+06
-2.84818e+06
-2.82512e+06
-2.80206e+06
-2.779e+06
-2.75594e+06
-2.73288e+06
-2.70982e+06
-2.68676e+06
-2.6637e+06
-2.64064e+06
-2.61758e+06
-2.59452e+06
-2.57146e+06
-2.5484e+06
-2.52534e+06
-2.50228e+06
-2.47922e+06
-2.45616e+06
-2.4331e+06
-2.41004e+06
-2.38698e+06
-2.36392e+06
-2.34087e+06
-2.31781e+06
-2.29475e+06
-2.27169e+06
-2.24863e+06
-2.22557e+06
-2.20251e+06
-2.17945e+06
-2.15639e+06
-2.13333e+06
-2.11027e+06
-2.08721e+06
-2.06415e+06
-2.04109e+06
-2.01803e+06
-1.99497e+06
-1.97191e+06
-1.94885e+06
-1.92579e+06
-1.90273e+06
-1.87967e+06
-1.85661e+06
-1.83355e+06
-1.81049e+06
-1.78743e+06
-1.76437e+06
-1.74131e+06
-1.71825e+06
-1.69519e+06
-1.67213e+06
-1.64907e+06
-1.62601e+06
-1.60295e+06
-1.57989e+06
-1.55683e+06
-1.53377e+06
-1.51071e+06
-1.48765e+06
-1.46459e+06
-1.44153e+06
-1.41847e+06
-1.39541e+06
-1.37235e+06
-1.34929e+06
-1.32623e+06
-1.30317e+06
-1.28011e+06
-1.25705e+06
-1.23399e+06
-1.21093e+06
-1.18787e+06
-1.16481e+06
-1.14175e+06
-1.11869e+06
-1.09563e+06
-1.07257e+06
-1.04951e+06
-1.02645e+06
-1.00339e+06
-980333
-957273
-934213
-911153
-888093
-865034
-841974
-818914
-795854
-772794
-749734
-726674
-703615
-680555
-657495
-634435
-611376
-588316
-565257
-542198
-519141
-496084
-473030
-449978
-426929
-403886
-380847
-357813
-334779
-311734
-288655
-265493
-242157
-218483
-194189
-168812
-141625
-111561
-77175.2
-36753.9
11363.4
68250.2
133935
-5.67968e-05
-6.46967e-05
-6.87775e-05
-6.899e-05
-6.65208e-05
-6.23658e-05
-5.74748e-05
-5.30755e-05
-4.93982e-05
-4.61257e-05
-4.39776e-05
-4.27849e-05
-4.12665e-05
-4.02646e-05
-4.0719e-05
-4.06942e-05
-4.03871e-05
-4.09951e-05
-4.12649e-05
-4.04864e-05
-3.97202e-05
-4.12525e-05
-4.14635e-05
-4.15224e-05
-4.08896e-05
-4.05391e-05
-4.1296e-05
-3.99156e-05
-3.96426e-05
-3.85818e-05
-3.67516e-05
-3.68323e-05
-3.78435e-05
-3.66462e-05
-3.57714e-05
-3.57466e-05
-3.79428e-05
-3.99094e-05
-3.9655e-05
-4.49345e-05
-4.4798e-05
-4.45437e-05
-4.58031e-05
-4.50958e-05
-4.59147e-05
-3.97481e-05
-4.28128e-05
-4.45995e-05
-4.22979e-05
-4.14728e-05
-4.55239e-05
-4.49097e-05
-5.10329e-05
-4.96743e-05
-5.39239e-05
-4.78069e-05
-4.76022e-05
-3.76636e-05
-3.81351e-05
-4.23351e-05
-4.98107e-05
-5.54563e-05
-4.70873e-05
-5.66288e-05
-5.64303e-05
-5.60208e-05
-5.35641e-05
-4.66282e-05
-4.2484e-05
-4.04615e-05
-4.571e-05
-5.31174e-05
-4.38985e-05
-4.84025e-05
-4.87251e-05
-5.76834e-05
-5.71871e-05
-5.39859e-05
-4.10075e-05
-2.38228e-05
-1.06458e-05
-3.45182e-05
-3.85508e-05
-3.33643e-05
-3.02872e-05
-5.95446e-05
-4.82288e-05
-3.71611e-05
-3.4481e-05
-2.34506e-05
-8.74743e-06
-2.43439e-05
-1.3512e-05
-6.78702e-06
-1.0956e-05
-1.32887e-05
-1.10056e-05
2.23463e-05
2.28674e-05
-2.3463e-05
-5.2832e-05
-4.21366e-05
-4.94323e-05
-4.66902e-05
-1.10429e-05
-5.17526e-05
-4.65041e-05
-3.31906e-05
-5.60332e-05
-6.43464e-05
-4.15286e-05
-2.89596e-05
-2.49023e-05
-5.38246e-05
-4.62063e-05
-3.76698e-05
-3.22849e-05
-4.17643e-05
-4.47918e-05
-3.72355e-05
-2.42198e-05
-2.90464e-05
-4.4432e-05
-4.42707e-05
-4.62808e-05
-3.12178e-05
-5.21372e-05
-8.2077e-05
-5.19635e-05
-6.80687e-05
-5.96687e-05
-5.03877e-05
-0.000117923
-9.32439e-05
-7.09349e-05
-9.74005e-05
-4.18388e-05
-6.9905e-05
-0.000151672
-0.000112029
-6.78205e-05
-1.43929e-05
-9.54153e-06
9.67801e-07
-1.56089e-05
-2.97537e-05
-4.01017e-05
-6.63068e-05
-9.27352e-05
-9.29834e-05
-6.54383e-05
-1.91823e-05
-3.6975e-05
-6.49419e-05
-3.65035e-05
-5.11446e-05
-6.28575e-05
-9.00552e-05
-2.53614e-05
5.43706e-05
3.5759e-05
-4.00273e-05
-4.54122e-06
-1.35989e-05
-1.55593e-05
-6.39741e-05
-3.55853e-05
-2.69247e-05
2.19616e-05
3.53123e-05
-2.35746e-06
1.60308e-05
1.64278e-05
6.58849e-05
9.13952e-05
8.35039e-05
0.000116657
5.10701e-05
2.14902e-05
7.57367e-05
9.12959e-05
7.11706e-05
3.10689e-05
-1.09932e-05
8.46206e-06
-4.1541e-05
-2.48402e-05
3.55109e-05
1.48644e-05
5.11198e-06
5.10453e-05
5.01271e-06
-0.000148744
-0.000125243
-9.17922e-05
-8.16427e-05
-4.94323e-05
1.20107e-05
9.43978e-05
0.00012909
0.000134301
8.26602e-05
4.13425e-05
-1.05217e-05