/*--------------------------------*- C++ -*----------------------------------*\
| =========                 |                                                 |
| \\      /  F ield         | foam-extend: Open Source CFD                    |
|  \\    /   O peration     | Version:     4.0                                |
|   \\  /    A nd           | Web:         http://www.foam-extend.org         |
|    \\/     M anipulation  |                                                 |
\*---------------------------------------------------------------------------*/
FoamFile
{
    version     2.0;
    format      ascii;
    class       volScalarField;
    location    "1";
    object      sigmaEq;
}
// * * * * * * * * * * * * * * * * * * * * * * * * * * * * * * * * * * * * * //

dimensions      [1 -1 -2 0 0 0 0];

internalField   nonuniform List<scalar> 
4500
(
8.53979e+07
8.92915e+07
9.3013e+07
9.4714e+07
9.5582e+07
9.60259e+07
9.62166e+07
9.62364e+07
9.6137e+07
9.59554e+07
9.57186e+07
9.54455e+07
9.51493e+07
9.48385e+07
9.4519e+07
9.41942e+07
9.38665e+07
9.3537e+07
9.32067e+07
9.28758e+07
9.25448e+07
9.22137e+07
9.18825e+07
9.15514e+07
9.12202e+07
9.08891e+07
9.0558e+07
9.02269e+07
8.98958e+07
8.95647e+07
8.92336e+07
8.89025e+07
8.85714e+07
8.82403e+07
8.79092e+07
8.75781e+07
8.7247e+07
8.69159e+07
8.65849e+07
8.62538e+07
8.59227e+07
8.55916e+07
8.52605e+07
8.49294e+07
8.45983e+07
8.42672e+07
8.39362e+07
8.36051e+07
8.3274e+07
8.29429e+07
8.26118e+07
8.22807e+07
8.19496e+07
8.16185e+07
8.12875e+07
8.09564e+07
8.06253e+07
8.02942e+07
7.99631e+07
7.9632e+07
7.93009e+07
7.89698e+07
7.86388e+07
7.83077e+07
7.79766e+07
7.76455e+07
7.73144e+07
7.69833e+07
7.66522e+07
7.63211e+07
7.59901e+07
7.5659e+07
7.53279e+07
7.49968e+07
7.46657e+07
7.43346e+07
7.40035e+07
7.36724e+07
7.33414e+07
7.30103e+07
7.26792e+07
7.23481e+07
7.2017e+07
7.16859e+07
7.13548e+07
7.10238e+07
7.06927e+07
7.03616e+07
7.00305e+07
6.96994e+07
6.93683e+07
6.90372e+07
6.87061e+07
6.83751e+07
6.8044e+07
6.77129e+07
6.73818e+07
6.70507e+07
6.67196e+07
6.63885e+07
6.60575e+07
6.57264e+07
6.53953e+07
6.50642e+07
6.47331e+07
6.4402e+07
6.40709e+07
6.37399e+07
6.34088e+07
6.30777e+07
6.27466e+07
6.24155e+07
6.20844e+07
6.17533e+07
6.14223e+07
6.10912e+07
6.07601e+07
6.0429e+07
6.00979e+07
5.97668e+07
5.94357e+07
5.91047e+07
5.87736e+07
5.84425e+07
5.81114e+07
5.77803e+07
5.74492e+07
5.71182e+07
5.67871e+07
5.6456e+07
5.61249e+07
5.57938e+07
5.54627e+07
5.51316e+07
5.48006e+07
5.44695e+07
5.41384e+07
5.38073e+07
5.34762e+07
5.31451e+07
5.28141e+07
5.2483e+07
5.21519e+07
5.18208e+07
5.14897e+07
5.11586e+07
5.08276e+07
5.04965e+07
5.01654e+07
4.98343e+07
4.95032e+07
4.91721e+07
4.88411e+07
4.851e+07
4.81789e+07
4.78478e+07
4.75167e+07
4.71857e+07
4.68546e+07
4.65235e+07
4.61924e+07
4.58613e+07
4.55302e+07
4.51992e+07
4.48681e+07
4.4537e+07
4.42059e+07
4.38748e+07
4.35438e+07
4.32127e+07
4.28816e+07
4.25505e+07
4.22194e+07
4.18884e+07
4.15573e+07
4.12262e+07
4.08951e+07
4.0564e+07
4.0233e+07
3.99019e+07
3.95708e+07
3.92397e+07
3.89086e+07
3.85776e+07
3.82465e+07
3.79154e+07
3.75843e+07
3.72533e+07
3.69222e+07
3.65911e+07
3.626e+07
3.59289e+07
3.55979e+07
3.52668e+07
3.49357e+07
3.46046e+07
3.42736e+07
3.39425e+07
3.36114e+07
3.32803e+07
3.29493e+07
3.26182e+07
3.22871e+07
3.19561e+07
3.1625e+07
3.12939e+07
3.09628e+07
3.06318e+07
3.03007e+07
2.99696e+07
2.96386e+07
2.93075e+07
2.89764e+07
2.86454e+07
2.83143e+07
2.79832e+07
2.76521e+07
2.73211e+07
2.699e+07
2.6659e+07
2.63279e+07
2.59968e+07
2.56658e+07
2.53347e+07
2.50036e+07
2.46726e+07
2.43415e+07
2.40105e+07
2.36794e+07
2.33483e+07
2.30173e+07
2.26862e+07
2.23552e+07
2.20241e+07
2.16931e+07
2.1362e+07
2.1031e+07
2.06999e+07
2.03689e+07
2.00378e+07
1.97068e+07
1.93757e+07
1.90447e+07
1.87137e+07
1.83826e+07
1.80516e+07
1.77206e+07
1.73895e+07
1.70585e+07
1.67275e+07
1.63964e+07
1.60654e+07
1.57344e+07
1.54034e+07
1.50724e+07
1.47414e+07
1.44104e+07
1.40794e+07
1.37484e+07
1.34174e+07
1.30864e+07
1.27554e+07
1.24244e+07
1.20935e+07
1.17625e+07
1.14315e+07
1.11006e+07
1.07697e+07
1.04387e+07
1.01078e+07
9.7769e+06
9.446e+06
9.11512e+06
8.78425e+06
8.45341e+06
8.12258e+06
7.79177e+06
7.46098e+06
7.13022e+06
6.7995e+06
6.46881e+06
6.13817e+06
5.80761e+06
5.47714e+06
5.14684e+06
4.81679e+06
4.48714e+06
4.15815e+06
3.83021e+06
3.50397e+06
3.1804e+06
2.86098e+06
2.54789e+06
2.24437e+06
1.95518e+06
1.68787e+06
1.45605e+06
1.2864e+06
1.24007e+06
1.45442e+06
6.8619e+07
7.88818e+07
8.22904e+07
8.32305e+07
8.33903e+07
8.33e+07
8.31205e+07
8.29014e+07
8.26601e+07
8.24042e+07
8.21386e+07
8.18663e+07
8.15896e+07
8.131e+07
8.10287e+07
8.07463e+07
8.04633e+07
8.01799e+07
7.98963e+07
7.96126e+07
7.93288e+07
7.9045e+07
7.87613e+07
7.84775e+07
7.81937e+07
7.79099e+07
7.76261e+07
7.73424e+07
7.70586e+07
7.67748e+07
7.6491e+07
7.62073e+07
7.59235e+07
7.56397e+07
7.5356e+07
7.50722e+07
7.47884e+07
7.45046e+07
7.42209e+07
7.39371e+07
7.36533e+07
7.33696e+07
7.30858e+07
7.2802e+07
7.25183e+07
7.22345e+07
7.19507e+07
7.1667e+07
7.13832e+07
7.10994e+07
7.08157e+07
7.05319e+07
7.02481e+07
6.99644e+07
6.96806e+07
6.93968e+07
6.91131e+07
6.88293e+07
6.85455e+07
6.82618e+07
6.7978e+07
6.76942e+07
6.74105e+07
6.71267e+07
6.68429e+07
6.65592e+07
6.62754e+07
6.59916e+07
6.57079e+07
6.54241e+07
6.51404e+07
6.48566e+07
6.45728e+07
6.42891e+07
6.40053e+07
6.37215e+07
6.34378e+07
6.3154e+07
6.28703e+07
6.25865e+07
6.23027e+07
6.2019e+07
6.17352e+07
6.14515e+07
6.11677e+07
6.08839e+07
6.06002e+07
6.03164e+07
6.00327e+07
5.97489e+07
5.94652e+07
5.91814e+07
5.88976e+07
5.86139e+07
5.83301e+07
5.80464e+07
5.77626e+07
5.74789e+07
5.71951e+07
5.69114e+07
5.66276e+07
5.63439e+07
5.60601e+07
5.57763e+07
5.54926e+07
5.52088e+07
5.49251e+07
5.46413e+07
5.43576e+07
5.40738e+07
5.37901e+07
5.35063e+07
5.32226e+07
5.29388e+07
5.26551e+07
5.23714e+07
5.20876e+07
5.18039e+07
5.15201e+07
5.12364e+07
5.09526e+07
5.06689e+07
5.03851e+07
5.01014e+07
4.98176e+07
4.95339e+07
4.92502e+07
4.89664e+07
4.86827e+07
4.83989e+07
4.81152e+07
4.78315e+07
4.75477e+07
4.7264e+07
4.69803e+07
4.66965e+07
4.64128e+07
4.61291e+07
4.58453e+07
4.55616e+07
4.52779e+07
4.49941e+07
4.47104e+07
4.44267e+07
4.41429e+07
4.38592e+07
4.35755e+07
4.32918e+07
4.3008e+07
4.27243e+07
4.24406e+07
4.21569e+07
4.18731e+07
4.15894e+07
4.13057e+07
4.1022e+07
4.07383e+07
4.04545e+07
4.01708e+07
3.98871e+07
3.96034e+07
3.93197e+07
3.9036e+07
3.87523e+07
3.84685e+07
3.81848e+07
3.79011e+07
3.76174e+07
3.73337e+07
3.705e+07
3.67663e+07
3.64826e+07
3.61989e+07
3.59152e+07
3.56315e+07
3.53478e+07
3.50641e+07
3.47804e+07
3.44968e+07
3.42131e+07
3.39294e+07
3.36457e+07
3.3362e+07
3.30783e+07
3.27947e+07
3.2511e+07
3.22273e+07
3.19436e+07
3.166e+07
3.13763e+07
3.10926e+07
3.0809e+07
3.05253e+07
3.02417e+07
2.9958e+07
2.96743e+07
2.93907e+07
2.9107e+07
2.88234e+07
2.85398e+07
2.82561e+07
2.79725e+07
2.76888e+07
2.74052e+07
2.71216e+07
2.6838e+07
2.65543e+07
2.62707e+07
2.59871e+07
2.57035e+07
2.54199e+07
2.51363e+07
2.48527e+07
2.45691e+07
2.42855e+07
2.4002e+07
2.37184e+07
2.34348e+07
2.31512e+07
2.28677e+07
2.25841e+07
2.23006e+07
2.2017e+07
2.17335e+07
2.145e+07
2.11665e+07
2.08829e+07
2.05994e+07
2.03159e+07
2.00324e+07
1.9749e+07
1.94655e+07
1.9182e+07
1.88986e+07
1.86151e+07
1.83317e+07
1.80483e+07
1.77649e+07
1.74815e+07
1.71981e+07
1.69147e+07
1.66314e+07
1.6348e+07
1.60647e+07
1.57814e+07
1.54981e+07
1.52148e+07
1.49316e+07
1.46484e+07
1.43651e+07
1.4082e+07
1.37988e+07
1.35157e+07
1.32326e+07
1.29495e+07
1.26664e+07
1.23834e+07
1.21005e+07
1.18175e+07
1.15346e+07
1.12518e+07
1.0969e+07
1.06863e+07
1.04036e+07
1.0121e+07
9.83839e+06
9.55591e+06
9.27351e+06
8.99119e+06
8.70897e+06
8.42685e+06
8.14485e+06
7.86298e+06
7.58126e+06
7.29969e+06
7.0183e+06
6.73712e+06
6.45616e+06
6.17546e+06
5.89505e+06
5.61499e+06
5.33531e+06
5.05608e+06
4.77737e+06
4.49927e+06
4.22188e+06
3.94532e+06
3.66972e+06
3.39521e+06
3.12195e+06
2.85006e+06
2.57968e+06
2.31098e+06
2.04448e+06
1.78198e+06
1.52963e+06
1.30748e+06
1.1768e+06
1.30552e+06
1.96761e+06
5.07601e+07
6.26473e+07
6.79386e+07
6.98439e+07
7.03047e+07
7.02009e+07
6.99024e+07
6.95562e+07
6.92156e+07
6.88962e+07
6.85992e+07
6.83207e+07
6.80561e+07
6.78015e+07
6.75536e+07
6.73101e+07
6.70694e+07
6.68305e+07
6.65927e+07
6.63555e+07
6.61186e+07
6.5882e+07
6.56455e+07
6.5409e+07
6.51726e+07
6.49361e+07
6.46997e+07
6.44633e+07
6.42269e+07
6.39904e+07
6.3754e+07
6.35176e+07
6.32811e+07
6.30447e+07
6.28083e+07
6.25718e+07
6.23354e+07
6.2099e+07
6.18626e+07
6.16261e+07
6.13897e+07
6.11533e+07
6.09168e+07
6.06804e+07
6.0444e+07
6.02076e+07
5.99711e+07
5.97347e+07
5.94983e+07
5.92619e+07
5.90254e+07
5.8789e+07
5.85526e+07
5.83162e+07
5.80798e+07
5.78433e+07
5.76069e+07
5.73705e+07
5.71341e+07
5.68977e+07
5.66612e+07
5.64248e+07
5.61884e+07
5.5952e+07
5.57156e+07
5.54792e+07
5.52428e+07
5.50063e+07
5.47699e+07
5.45335e+07
5.42971e+07
5.40607e+07
5.38243e+07
5.35879e+07
5.33515e+07
5.31151e+07
5.28787e+07
5.26423e+07
5.24059e+07
5.21694e+07
5.1933e+07
5.16966e+07
5.14602e+07
5.12238e+07
5.09874e+07
5.0751e+07
5.05146e+07
5.02782e+07
5.00419e+07
4.98055e+07
4.95691e+07
4.93327e+07
4.90963e+07
4.88599e+07
4.86235e+07
4.83871e+07
4.81507e+07
4.79143e+07
4.76779e+07
4.74416e+07
4.72052e+07
4.69688e+07
4.67324e+07
4.6496e+07
4.62597e+07
4.60233e+07
4.57869e+07
4.55505e+07
4.53141e+07
4.50778e+07
4.48414e+07
4.4605e+07
4.43687e+07
4.41323e+07
4.38959e+07
4.36596e+07
4.34232e+07
4.31868e+07
4.29505e+07
4.27141e+07
4.24778e+07
4.22414e+07
4.2005e+07
4.17687e+07
4.15323e+07
4.1296e+07
4.10596e+07
4.08233e+07
4.05869e+07
4.03506e+07
4.01143e+07
3.98779e+07
3.96416e+07
3.94052e+07
3.91689e+07
3.89326e+07
3.86962e+07
3.84599e+07
3.82236e+07
3.79873e+07
3.77509e+07
3.75146e+07
3.72783e+07
3.7042e+07
3.68057e+07
3.65694e+07
3.6333e+07
3.60967e+07
3.58604e+07
3.56241e+07
3.53878e+07
3.51515e+07
3.49152e+07
3.4679e+07
3.44427e+07
3.42064e+07
3.39701e+07
3.37338e+07
3.34975e+07
3.32613e+07
3.3025e+07
3.27887e+07
3.25525e+07
3.23162e+07
3.20799e+07
3.18437e+07
3.16074e+07
3.13712e+07
3.1135e+07
3.08987e+07
3.06625e+07
3.04262e+07
3.019e+07
2.99538e+07
2.97176e+07
2.94814e+07
2.92452e+07
2.90089e+07
2.87727e+07
2.85366e+07
2.83004e+07
2.80642e+07
2.7828e+07
2.75918e+07
2.73557e+07
2.71195e+07
2.68833e+07
2.66472e+07
2.6411e+07
2.61749e+07
2.59388e+07
2.57026e+07
2.54665e+07
2.52304e+07
2.49943e+07
2.47582e+07
2.45221e+07
2.4286e+07
2.40499e+07
2.38139e+07
2.35778e+07
2.33418e+07
2.31057e+07
2.28697e+07
2.26337e+07
2.23977e+07
2.21617e+07
2.19257e+07
2.16897e+07
2.14537e+07
2.12178e+07
2.09818e+07
2.07459e+07
2.051e+07
2.02741e+07
2.00382e+07
1.98023e+07
1.95664e+07
1.93306e+07
1.90948e+07
1.8859e+07
1.86232e+07
1.83874e+07
1.81516e+07
1.79159e+07
1.76802e+07
1.74445e+07
1.72088e+07
1.69731e+07
1.67375e+07
1.65019e+07
1.62663e+07
1.60307e+07
1.57952e+07
1.55597e+07
1.53243e+07
1.50888e+07
1.48534e+07
1.46181e+07
1.43827e+07
1.41474e+07
1.39122e+07
1.3677e+07
1.34418e+07
1.32067e+07
1.29716e+07
1.27366e+07
1.25017e+07
1.22668e+07
1.20319e+07
1.17972e+07
1.15625e+07
1.13279e+07
1.10933e+07
1.08589e+07
1.06245e+07
1.03902e+07
1.0156e+07
9.92199e+06
9.68805e+06
9.45424e+06
9.22056e+06
8.98703e+06
8.75366e+06
8.52046e+06
8.28745e+06
8.05464e+06
7.82206e+06
7.58971e+06
7.35763e+06
7.12584e+06
6.89437e+06
6.66325e+06
6.43253e+06
6.20223e+06
5.97243e+06
5.74316e+06
5.51451e+06
5.28653e+06
5.05934e+06
4.83301e+06
4.60768e+06
4.38346e+06
4.16049e+06
3.93892e+06
3.71889e+06
3.50052e+06
3.2839e+06
3.06907e+06
2.85597e+06
2.64454e+06
2.43481e+06
2.22738e+06
2.02452e+06
1.83263e+06
1.66707e+06
1.55949e+06
1.56144e+06
1.7301e+06
2.0692e+06
3.84695e+07
4.77329e+07
5.31637e+07
5.56601e+07
5.65317e+07
5.66211e+07
5.63812e+07
5.60324e+07
5.56721e+07
5.53371e+07
5.50362e+07
5.47669e+07
5.45227e+07
5.42971e+07
5.40845e+07
5.38807e+07
5.36827e+07
5.34883e+07
5.32961e+07
5.31054e+07
5.29153e+07
5.27258e+07
5.25365e+07
5.23473e+07
5.21582e+07
5.19691e+07
5.17801e+07
5.1591e+07
5.1402e+07
5.12129e+07
5.10238e+07
5.08348e+07
5.06457e+07
5.04566e+07
5.02676e+07
5.00785e+07
4.98895e+07
4.97004e+07
4.95113e+07
4.93223e+07
4.91332e+07
4.89441e+07
4.87551e+07
4.8566e+07
4.8377e+07
4.81879e+07
4.79989e+07
4.78098e+07
4.76208e+07
4.74317e+07
4.72427e+07
4.70536e+07
4.68646e+07
4.66755e+07
4.64865e+07
4.62974e+07
4.61084e+07
4.59193e+07
4.57303e+07
4.55413e+07
4.53522e+07
4.51632e+07
4.49742e+07
4.47851e+07
4.45961e+07
4.44071e+07
4.4218e+07
4.4029e+07
4.384e+07
4.3651e+07
4.34619e+07
4.32729e+07
4.30839e+07
4.28949e+07
4.27059e+07
4.25168e+07
4.23278e+07
4.21388e+07
4.19498e+07
4.17608e+07
4.15718e+07
4.13828e+07
4.11938e+07
4.10048e+07
4.08158e+07
4.06268e+07
4.04378e+07
4.02488e+07
4.00598e+07
3.98708e+07
3.96818e+07
3.94928e+07
3.93038e+07
3.91149e+07
3.89259e+07
3.87369e+07
3.85479e+07
3.83589e+07
3.817e+07
3.7981e+07
3.7792e+07
3.76031e+07
3.74141e+07
3.72251e+07
3.70362e+07
3.68472e+07
3.66583e+07
3.64693e+07
3.62804e+07
3.60914e+07
3.59025e+07
3.57135e+07
3.55246e+07
3.53357e+07
3.51467e+07
3.49578e+07
3.47689e+07
3.45799e+07
3.4391e+07
3.42021e+07
3.40132e+07
3.38243e+07
3.36354e+07
3.34465e+07
3.32576e+07
3.30687e+07
3.28798e+07
3.26909e+07
3.2502e+07
3.23131e+07
3.21242e+07
3.19353e+07
3.17465e+07
3.15576e+07
3.13687e+07
3.11799e+07
3.0991e+07
3.08022e+07
3.06133e+07
3.04245e+07
3.02356e+07
3.00468e+07
2.98579e+07
2.96691e+07
2.94803e+07
2.92915e+07
2.91027e+07
2.89139e+07
2.8725e+07
2.85362e+07
2.83475e+07
2.81587e+07
2.79699e+07
2.77811e+07
2.75923e+07
2.74036e+07
2.72148e+07
2.70261e+07
2.68373e+07
2.66486e+07
2.64598e+07
2.62711e+07
2.60824e+07
2.58937e+07
2.5705e+07
2.55163e+07
2.53276e+07
2.51389e+07
2.49502e+07
2.47616e+07
2.45729e+07
2.43842e+07
2.41956e+07
2.4007e+07
2.38183e+07
2.36297e+07
2.34411e+07
2.32525e+07
2.30639e+07
2.28753e+07
2.26868e+07
2.24982e+07
2.23097e+07
2.21211e+07
2.19326e+07
2.17441e+07
2.15556e+07
2.13671e+07
2.11786e+07
2.09902e+07
2.08017e+07
2.06133e+07
2.04249e+07
2.02364e+07
2.00481e+07
1.98597e+07
1.96713e+07
1.9483e+07
1.92946e+07
1.91063e+07
1.8918e+07
1.87298e+07
1.85415e+07
1.83533e+07
1.8165e+07
1.79768e+07
1.77887e+07
1.76005e+07
1.74124e+07
1.72243e+07
1.70362e+07
1.68481e+07
1.66601e+07
1.64721e+07
1.62841e+07
1.60961e+07
1.59082e+07
1.57203e+07
1.55325e+07
1.53446e+07
1.51568e+07
1.49691e+07
1.47813e+07
1.45937e+07
1.4406e+07
1.42184e+07
1.40309e+07
1.38433e+07
1.36559e+07
1.34684e+07
1.32811e+07
1.30937e+07
1.29065e+07
1.27193e+07
1.25321e+07
1.2345e+07
1.2158e+07
1.19711e+07
1.17842e+07
1.15974e+07
1.14106e+07
1.1224e+07
1.10374e+07
1.0851e+07
1.06646e+07
1.04783e+07
1.02922e+07
1.01061e+07
9.92019e+06
9.73438e+06
9.54871e+06
9.36318e+06
9.1778e+06
8.99257e+06
8.80752e+06
8.62264e+06
8.43796e+06
8.25348e+06
8.06922e+06
7.88519e+06
7.70142e+06
7.51791e+06
7.33469e+06
7.15178e+06
6.96921e+06
6.787e+06
6.60518e+06
6.42379e+06
6.24286e+06
6.06244e+06
5.88257e+06
5.7033e+06
5.5247e+06
5.34682e+06
5.16975e+06
4.99357e+06
4.81837e+06
4.64427e+06
4.47138e+06
4.29985e+06
4.12984e+06
3.96151e+06
3.79505e+06
3.63067e+06
3.46855e+06
3.3089e+06
3.1519e+06
2.99769e+06
2.84641e+06
2.69822e+06
2.55343e+06
2.41284e+06
2.27833e+06
2.15396e+06
2.04745e+06
1.97119e+06
1.94044e+06
1.96432e+06
2.03116e+06
2.1012e+06
2.87885e+07
3.46127e+07
3.90206e+07
4.14347e+07
4.24628e+07
4.27107e+07
4.25807e+07
4.23008e+07
4.19857e+07
4.16856e+07
4.14172e+07
4.11817e+07
4.0974e+07
4.07878e+07
4.06169e+07
4.04567e+07
4.03036e+07
4.0155e+07
4.00093e+07
3.98653e+07
3.97223e+07
3.958e+07
3.9438e+07
3.92961e+07
3.91544e+07
3.90127e+07
3.88711e+07
3.87294e+07
3.85877e+07
3.84461e+07
3.83044e+07
3.81628e+07
3.80211e+07
3.78794e+07
3.77378e+07
3.75961e+07
3.74545e+07
3.73128e+07
3.71712e+07
3.70295e+07
3.68879e+07
3.67462e+07
3.66046e+07
3.64629e+07
3.63213e+07
3.61796e+07
3.6038e+07
3.58964e+07
3.57547e+07
3.56131e+07
3.54715e+07
3.53298e+07
3.51882e+07
3.50466e+07
3.4905e+07
3.47633e+07
3.46217e+07
3.44801e+07
3.43385e+07
3.41969e+07
3.40553e+07
3.39137e+07
3.37721e+07
3.36305e+07
3.34889e+07
3.33473e+07
3.32057e+07
3.30641e+07
3.29225e+07
3.27809e+07
3.26393e+07
3.24978e+07
3.23562e+07
3.22146e+07
3.2073e+07
3.19315e+07
3.17899e+07
3.16484e+07
3.15068e+07
3.13652e+07
3.12237e+07
3.10821e+07
3.09406e+07
3.0799e+07
3.06575e+07
3.0516e+07
3.03744e+07
3.02329e+07
3.00914e+07
2.99499e+07
2.98083e+07
2.96668e+07
2.95253e+07
2.93838e+07
2.92423e+07
2.91008e+07
2.89593e+07
2.88178e+07
2.86763e+07
2.85348e+07
2.83933e+07
2.82519e+07
2.81104e+07
2.79689e+07
2.78275e+07
2.7686e+07
2.75445e+07
2.74031e+07
2.72616e+07
2.71202e+07
2.69788e+07
2.68373e+07
2.66959e+07
2.65545e+07
2.64131e+07
2.62717e+07
2.61303e+07
2.59889e+07
2.58475e+07
2.57061e+07
2.55647e+07
2.54233e+07
2.52819e+07
2.51406e+07
2.49992e+07
2.48578e+07
2.47165e+07
2.45752e+07
2.44338e+07
2.42925e+07
2.41512e+07
2.40099e+07
2.38685e+07
2.37272e+07
2.35859e+07
2.34447e+07
2.33034e+07
2.31621e+07
2.30208e+07
2.28796e+07
2.27383e+07
2.25971e+07
2.24559e+07
2.23146e+07
2.21734e+07
2.20322e+07
2.1891e+07
2.17498e+07
2.16086e+07
2.14675e+07
2.13263e+07
2.11852e+07
2.1044e+07
2.09029e+07
2.07618e+07
2.06206e+07
2.04795e+07
2.03385e+07
2.01974e+07
2.00563e+07
1.99153e+07
1.97742e+07
1.96332e+07
1.94922e+07
1.93512e+07
1.92102e+07
1.90692e+07
1.89282e+07
1.87873e+07
1.86464e+07
1.85054e+07
1.83645e+07
1.82236e+07
1.80828e+07
1.79419e+07
1.78011e+07
1.76602e+07
1.75194e+07
1.73786e+07
1.72379e+07
1.70971e+07
1.69564e+07
1.68157e+07
1.6675e+07
1.65343e+07
1.63936e+07
1.6253e+07
1.61124e+07
1.59718e+07
1.58313e+07
1.56907e+07
1.55502e+07
1.54097e+07
1.52692e+07
1.51288e+07
1.49884e+07
1.4848e+07
1.47077e+07
1.45673e+07
1.44271e+07
1.42868e+07
1.41466e+07
1.40064e+07
1.38662e+07
1.37261e+07
1.3586e+07
1.3446e+07
1.3306e+07
1.3166e+07
1.30261e+07
1.28862e+07
1.27463e+07
1.26065e+07
1.24668e+07
1.23271e+07
1.21875e+07
1.20479e+07
1.19083e+07
1.17688e+07
1.16294e+07
1.14901e+07
1.13507e+07
1.12115e+07
1.10723e+07
1.09332e+07
1.07942e+07
1.06553e+07
1.05164e+07
1.03776e+07
1.02389e+07
1.01003e+07
9.96177e+06
9.82334e+06
9.68502e+06
9.5468e+06
9.40869e+06
9.27069e+06
9.13281e+06
8.99506e+06
8.85743e+06
8.71995e+06
8.58261e+06
8.44542e+06
8.30838e+06
8.17152e+06
8.03482e+06
7.89831e+06
7.762e+06
7.62588e+06
7.48999e+06
7.35432e+06
7.21888e+06
7.0837e+06
6.94879e+06
6.81417e+06
6.67984e+06
6.54583e+06
6.41217e+06
6.27886e+06
6.14594e+06
6.01343e+06
5.88135e+06
5.74975e+06
5.61864e+06
5.48807e+06
5.35808e+06
5.22871e+06
5.1e+06
4.97201e+06
4.8448e+06
4.71842e+06
4.59295e+06
4.46847e+06
4.34505e+06
4.22279e+06
4.1018e+06
3.98218e+06
3.86407e+06
3.7476e+06
3.63293e+06
3.52021e+06
3.40963e+06
3.30136e+06
3.19562e+06
3.09258e+06
2.99247e+06
2.89548e+06
2.80185e+06
2.71186e+06
2.62593e+06
2.54475e+06
2.46955e+06
2.40237e+06
2.34632e+06
2.30535e+06
2.28253e+06
2.27533e+06
2.2675e+06
2.22155e+06
2.08639e+06
2.07829e+07
2.2776e+07
2.55879e+07
2.74567e+07
2.83681e+07
2.86552e+07
2.86094e+07
2.84179e+07
2.81831e+07
2.79538e+07
2.77484e+07
2.757e+07
2.74158e+07
2.72805e+07
2.71591e+07
2.70474e+07
2.69423e+07
2.68415e+07
2.67433e+07
2.66469e+07
2.65514e+07
2.64565e+07
2.6362e+07
2.62676e+07
2.61734e+07
2.60791e+07
2.5985e+07
2.58908e+07
2.57966e+07
2.57024e+07
2.56082e+07
2.55141e+07
2.54199e+07
2.53257e+07
2.52316e+07
2.51374e+07
2.50432e+07
2.49491e+07
2.48549e+07
2.47608e+07
2.46666e+07
2.45725e+07
2.44783e+07
2.43842e+07
2.42901e+07
2.41959e+07
2.41018e+07
2.40077e+07
2.39136e+07
2.38195e+07
2.37253e+07
2.36312e+07
2.35371e+07
2.3443e+07
2.33489e+07
2.32548e+07
2.31608e+07
2.30667e+07
2.29726e+07
2.28785e+07
2.27844e+07
2.26904e+07
2.25963e+07
2.25023e+07
2.24082e+07
2.23142e+07
2.22201e+07
2.21261e+07
2.2032e+07
2.1938e+07
2.1844e+07
2.175e+07
2.16559e+07
2.15619e+07
2.14679e+07
2.13739e+07
2.12799e+07
2.1186e+07
2.1092e+07
2.0998e+07
2.0904e+07
2.08101e+07
2.07161e+07
2.06221e+07
2.05282e+07
2.04342e+07
2.03403e+07
2.02464e+07
2.01525e+07
2.00585e+07
1.99646e+07
1.98707e+07
1.97768e+07
1.96829e+07
1.9589e+07
1.94952e+07
1.94013e+07
1.93074e+07
1.92136e+07
1.91197e+07
1.90259e+07
1.8932e+07
1.88382e+07
1.87444e+07
1.86506e+07
1.85568e+07
1.8463e+07
1.83692e+07
1.82754e+07
1.81816e+07
1.80879e+07
1.79941e+07
1.79004e+07
1.78067e+07
1.77129e+07
1.76192e+07
1.75255e+07
1.74318e+07
1.73381e+07
1.72444e+07
1.71508e+07
1.70571e+07
1.69635e+07
1.68698e+07
1.67762e+07
1.66826e+07
1.6589e+07
1.64954e+07
1.64018e+07
1.63082e+07
1.62147e+07
1.61211e+07
1.60276e+07
1.59341e+07
1.58406e+07
1.57471e+07
1.56536e+07
1.55601e+07
1.54667e+07
1.53732e+07
1.52798e+07
1.51864e+07
1.5093e+07
1.49996e+07
1.49063e+07
1.48129e+07
1.47196e+07
1.46263e+07
1.4533e+07
1.44397e+07
1.43464e+07
1.42532e+07
1.41599e+07
1.40667e+07
1.39735e+07
1.38803e+07
1.37872e+07
1.3694e+07
1.36009e+07
1.35078e+07
1.34147e+07
1.33217e+07
1.32287e+07
1.31357e+07
1.30427e+07
1.29497e+07
1.28568e+07
1.27638e+07
1.2671e+07
1.25781e+07
1.24852e+07
1.23924e+07
1.22997e+07
1.22069e+07
1.21142e+07
1.20215e+07
1.19288e+07
1.18362e+07
1.17435e+07
1.1651e+07
1.15584e+07
1.14659e+07
1.13734e+07
1.1281e+07
1.11886e+07
1.10962e+07
1.10039e+07
1.09116e+07
1.08193e+07
1.07271e+07
1.0635e+07
1.05428e+07
1.04508e+07
1.03587e+07
1.02667e+07
1.01748e+07
1.00829e+07
9.99106e+06
9.89926e+06
9.80753e+06
9.71585e+06
9.62422e+06
9.53265e+06
9.44114e+06
9.3497e+06
9.25831e+06
9.16699e+06
9.07574e+06
8.98456e+06
8.89345e+06
8.80241e+06
8.71145e+06
8.62057e+06
8.52977e+06
8.43905e+06
8.34842e+06
8.25787e+06
8.16742e+06
8.07707e+06
7.98681e+06
7.89665e+06
7.8066e+06
7.71665e+06
7.62682e+06
7.53711e+06
7.44752e+06
7.35805e+06
7.26871e+06
7.17951e+06
7.09045e+06
7.00153e+06
6.91276e+06
6.82415e+06
6.7357e+06
6.64742e+06
6.55932e+06
6.4714e+06
6.38367e+06
6.29614e+06
6.20882e+06
6.12172e+06
6.03484e+06
5.94819e+06
5.86179e+06
5.77565e+06
5.68978e+06
5.60419e+06
5.51889e+06
5.4339e+06
5.34923e+06
5.2649e+06
5.18092e+06
5.09732e+06
5.01411e+06
4.93131e+06
4.84894e+06
4.76702e+06
4.68558e+06
4.60465e+06
4.52424e+06
4.44439e+06
4.36514e+06
4.2865e+06
4.20853e+06
4.13124e+06
4.05469e+06
3.97892e+06
3.90397e+06
3.82989e+06
3.75673e+06
3.68454e+06
3.61339e+06
3.54334e+06
3.47445e+06
3.4068e+06
3.34045e+06
3.27549e+06
3.212e+06
3.15007e+06
3.08979e+06
3.03127e+06
2.97459e+06
2.91988e+06
2.86726e+06
2.81686e+06
2.76887e+06
2.72348e+06
2.68102e+06
2.64189e+06
2.60671e+06
2.57635e+06
2.55195e+06
2.53483e+06
2.52601e+06
2.52496e+06
2.52693e+06
2.51832e+06
2.4705e+06
2.33567e+06
2.0547e+06
1.46328e+07
1.19526e+07
1.26675e+07
1.37797e+07
1.44348e+07
1.46704e+07
1.46618e+07
1.45435e+07
1.43927e+07
1.4246e+07
1.41172e+07
1.40085e+07
1.39176e+07
1.38408e+07
1.37741e+07
1.37147e+07
1.36601e+07
1.36087e+07
1.35593e+07
1.35112e+07
1.34638e+07
1.34168e+07
1.33701e+07
1.33236e+07
1.32771e+07
1.32307e+07
1.31842e+07
1.31378e+07
1.30915e+07
1.30451e+07
1.29987e+07
1.29523e+07
1.29059e+07
1.28596e+07
1.28132e+07
1.27669e+07
1.27205e+07
1.26742e+07
1.26278e+07
1.25815e+07
1.25352e+07
1.24889e+07
1.24426e+07
1.23963e+07
1.235e+07
1.23037e+07
1.22574e+07
1.22112e+07
1.21649e+07
1.21187e+07
1.20724e+07
1.20262e+07
1.198e+07
1.19337e+07
1.18875e+07
1.18413e+07
1.17951e+07
1.1749e+07
1.17028e+07
1.16566e+07
1.16105e+07
1.15643e+07
1.15182e+07
1.14721e+07
1.14259e+07
1.13798e+07
1.13337e+07
1.12876e+07
1.12416e+07
1.11955e+07
1.11494e+07
1.11034e+07
1.10574e+07
1.10113e+07
1.09653e+07
1.09193e+07
1.08733e+07
1.08273e+07
1.07814e+07
1.07354e+07
1.06895e+07
1.06435e+07
1.05976e+07
1.05517e+07
1.05058e+07
1.04599e+07
1.0414e+07
1.03682e+07
1.03223e+07
1.02765e+07
1.02307e+07
1.01849e+07
1.01391e+07
1.00933e+07
1.00475e+07
1.00018e+07
9.95604e+06
9.91032e+06
9.86461e+06
9.81892e+06
9.77324e+06
9.72758e+06
9.68194e+06
9.6363e+06
9.59069e+06
9.54509e+06
9.49951e+06
9.45395e+06
9.4084e+06
9.36287e+06
9.31736e+06
9.27186e+06
9.22639e+06
9.18093e+06
9.13549e+06
9.09007e+06
9.04467e+06
8.99929e+06
8.95393e+06
8.90859e+06
8.86327e+06
8.81797e+06
8.77269e+06
8.72743e+06
8.6822e+06
8.63698e+06
8.59179e+06
8.54662e+06
8.50148e+06
8.45636e+06
8.41126e+06
8.36619e+06
8.32114e+06
8.27611e+06
8.23112e+06
8.18614e+06
8.1412e+06
8.09628e+06
8.05139e+06
8.00652e+06
7.96169e+06
7.91688e+06
7.8721e+06
7.82735e+06
7.78264e+06
7.73795e+06
7.69329e+06
7.64867e+06
7.60408e+06
7.55952e+06
7.51499e+06
7.4705e+06
7.42604e+06
7.38162e+06
7.33724e+06
7.29289e+06
7.24857e+06
7.2043e+06
7.16007e+06
7.11587e+06
7.07171e+06
7.0276e+06
6.98353e+06
6.9395e+06
6.89551e+06
6.85157e+06
6.80767e+06
6.76382e+06
6.72001e+06
6.67625e+06
6.63254e+06
6.58888e+06
6.54527e+06
6.50172e+06
6.45821e+06
6.41476e+06
6.37137e+06
6.32802e+06
6.28474e+06
6.24152e+06
6.19835e+06
6.15525e+06
6.1122e+06
6.06922e+06
6.02631e+06
5.98346e+06
5.94068e+06
5.89797e+06
5.85533e+06
5.81276e+06
5.77026e+06
5.72784e+06
5.6855e+06
5.64323e+06
5.60105e+06
5.55894e+06
5.51693e+06
5.47499e+06
5.43315e+06
5.3914e+06
5.34974e+06
5.30817e+06
5.2667e+06
5.22533e+06
5.18406e+06
5.14289e+06
5.10183e+06
5.06088e+06
5.02005e+06
4.97932e+06
4.93871e+06
4.89823e+06
4.85786e+06
4.81762e+06
4.77752e+06
4.73754e+06
4.6977e+06
4.658e+06
4.61844e+06
4.57903e+06
4.53977e+06
4.50067e+06
4.46172e+06
4.42294e+06
4.38432e+06
4.34588e+06
4.30761e+06
4.26952e+06
4.23162e+06
4.19391e+06
4.15639e+06
4.11908e+06
4.08198e+06
4.04508e+06
4.00841e+06
3.97196e+06
3.93574e+06
3.89976e+06
3.86402e+06
3.82853e+06
3.7933e+06
3.75834e+06
3.72364e+06
3.68923e+06
3.65511e+06
3.62128e+06
3.58776e+06
3.55455e+06
3.52166e+06
3.4891e+06
3.45689e+06
3.42502e+06
3.39351e+06
3.36238e+06
3.33162e+06
3.30126e+06
3.2713e+06
3.24175e+06
3.21263e+06
3.18394e+06
3.1557e+06
3.12792e+06
3.10061e+06
3.07379e+06
3.04747e+06
3.02166e+06
2.99637e+06
2.97162e+06
2.94742e+06
2.92378e+06
2.90073e+06
2.87827e+06
2.85641e+06
2.83517e+06
2.81457e+06
2.79462e+06
2.77533e+06
2.75672e+06
2.7388e+06
2.72161e+06
2.70515e+06
2.68948e+06
2.67464e+06
2.66072e+06
2.64783e+06
2.63616e+06
2.62599e+06
2.61773e+06
2.61195e+06
2.60943e+06
2.61109e+06
2.61789e+06
2.63042e+06
2.64803e+06
2.66718e+06
2.67856e+06
2.66294e+06
2.58623e+06
2.39622e+06
2.0264e+06
1.20157e+07
4.72747e+06
282554
2.11989e+06
3.22098e+06
3.58262e+06
3.57551e+06
3.41787e+06
3.22448e+06
3.04766e+06
2.9056e+06
2.79987e+06
2.72521e+06
2.67456e+06
2.64132e+06
2.62013e+06
2.60698e+06
2.59903e+06
2.59436e+06
2.59168e+06
2.59021e+06
2.58943e+06
2.58904e+06
2.58887e+06
2.5888e+06
2.58878e+06
2.58879e+06
2.5888e+06
2.58882e+06
2.58883e+06
2.58884e+06
2.58885e+06
2.58885e+06
2.58885e+06
2.58886e+06
2.58886e+06
2.58886e+06
2.58886e+06
2.58886e+06
2.58886e+06
2.58886e+06
2.58886e+06
2.58886e+06
2.58886e+06
2.58886e+06
2.58886e+06
2.58886e+06
2.58886e+06
2.58886e+06
2.58886e+06
2.58886e+06
2.58886e+06
2.58886e+06
2.58886e+06
2.58886e+06
2.58886e+06
2.58886e+06
2.58886e+06
2.58886e+06
2.58886e+06
2.58886e+06
2.58886e+06
2.58886e+06
2.58886e+06
2.58886e+06
2.58886e+06
2.58886e+06
2.58886e+06
2.58886e+06
2.58886e+06
2.58886e+06
2.58886e+06
2.58886e+06
2.58886e+06
2.58886e+06
2.58886e+06
2.58886e+06
2.58886e+06
2.58886e+06
2.58886e+06
2.58886e+06
2.58886e+06
2.58886e+06
2.58886e+06
2.58886e+06
2.58886e+06
2.58886e+06
2.58886e+06
2.58886e+06
2.58886e+06
2.58886e+06
2.58886e+06
2.58886e+06
2.58886e+06
2.58886e+06
2.58886e+06
2.58886e+06
2.58886e+06
2.58886e+06
2.58886e+06
2.58886e+06
2.58886e+06
2.58886e+06
2.58886e+06
2.58886e+06
2.58886e+06
2.58886e+06
2.58886e+06
2.58886e+06
2.58886e+06
2.58886e+06
2.58886e+06
2.58886e+06
2.58886e+06
2.58886e+06
2.58886e+06
2.58886e+06
2.58886e+06
2.58886e+06
2.58886e+06
2.58886e+06
2.58886e+06
2.58886e+06
2.58886e+06
2.58886e+06
2.58886e+06
2.58886e+06
2.58886e+06
2.58886e+06
2.58886e+06
2.58886e+06
2.58886e+06
2.58886e+06
2.58886e+06
2.58886e+06
2.58886e+06
2.58886e+06
2.58886e+06
2.58886e+06
2.58886e+06
2.58886e+06
2.58886e+06
2.58886e+06
2.58886e+06
2.58886e+06
2.58886e+06
2.58886e+06
2.58886e+06
2.58886e+06
2.58886e+06
2.58886e+06
2.58886e+06
2.58886e+06
2.58886e+06
2.58886e+06
2.58886e+06
2.58886e+06
2.58886e+06
2.58886e+06
2.58886e+06
2.58886e+06
2.58886e+06
2.58886e+06
2.58886e+06
2.58886e+06
2.58886e+06
2.58886e+06
2.58886e+06
2.58886e+06
2.58886e+06
2.58886e+06
2.58886e+06
2.58886e+06
2.58886e+06
2.58886e+06
2.58886e+06
2.58886e+06
2.58886e+06
2.58886e+06
2.58886e+06
2.58886e+06
2.58886e+06
2.58886e+06
2.58886e+06
2.58886e+06
2.58886e+06
2.58886e+06
2.58886e+06
2.58886e+06
2.58886e+06
2.58886e+06
2.58886e+06
2.58886e+06
2.58886e+06
2.58886e+06
2.58886e+06
2.58886e+06
2.58886e+06
2.58886e+06
2.58886e+06
2.58886e+06
2.58886e+06
2.58886e+06
2.58886e+06
2.58886e+06
2.58886e+06
2.58886e+06
2.58886e+06
2.58886e+06
2.58886e+06
2.58886e+06
2.58886e+06
2.58886e+06
2.58886e+06
2.58886e+06
2.58886e+06
2.58886e+06
2.58886e+06
2.58886e+06
2.58886e+06
2.58886e+06
2.58886e+06
2.58886e+06
2.58886e+06
2.58886e+06
2.58886e+06
2.58886e+06
2.58886e+06
2.58886e+06
2.58886e+06
2.58886e+06
2.58886e+06
2.58886e+06
2.58886e+06
2.58886e+06
2.58886e+06
2.58886e+06
2.58886e+06
2.58886e+06
2.58886e+06
2.58886e+06
2.58886e+06
2.58886e+06
2.58886e+06
2.58886e+06
2.58886e+06
2.58886e+06
2.58886e+06
2.58886e+06
2.58886e+06
2.58886e+06
2.58886e+06
2.58886e+06
2.58886e+06
2.58886e+06
2.58886e+06
2.58886e+06
2.58886e+06
2.58886e+06
2.58886e+06
2.58886e+06
2.58886e+06
2.58886e+06
2.58886e+06
2.58886e+06
2.58886e+06
2.58886e+06
2.58886e+06
2.58886e+06
2.58886e+06
2.58886e+06
2.58886e+06
2.58885e+06
2.58885e+06
2.58885e+06
2.58885e+06
2.58885e+06
2.58885e+06
2.58887e+06
2.58891e+06
2.58899e+06
2.58914e+06
2.58942e+06
2.58992e+06
2.59078e+06
2.59223e+06
2.59459e+06
2.59834e+06
2.60413e+06
2.6128e+06
2.62531e+06
2.64254e+06
2.66479e+06
2.6908e+06
2.716e+06
2.72964e+06
2.71077e+06
2.62378e+06
2.41516e+06
2.01533e+06
1.46328e+07
1.19526e+07
1.26675e+07
1.37797e+07
1.44348e+07
1.46704e+07
1.46618e+07
1.45435e+07
1.43927e+07
1.4246e+07
1.41172e+07
1.40085e+07
1.39176e+07
1.38408e+07
1.37741e+07
1.37147e+07
1.36601e+07
1.36087e+07
1.35593e+07
1.35112e+07
1.34638e+07
1.34168e+07
1.33701e+07
1.33236e+07
1.32771e+07
1.32307e+07
1.31842e+07
1.31378e+07
1.30915e+07
1.30451e+07
1.29987e+07
1.29523e+07
1.29059e+07
1.28596e+07
1.28132e+07
1.27669e+07
1.27205e+07
1.26742e+07
1.26278e+07
1.25815e+07
1.25352e+07
1.24889e+07
1.24426e+07
1.23963e+07
1.235e+07
1.23037e+07
1.22574e+07
1.22112e+07
1.21649e+07